<?xml version="1.0" encoding="UTF-8"?>

<!-- generated on 2022-04-17 10:45:20 by Eclipse SUMO sumo Version 1.12.0
<configuration xmlns:xsi="http://www.w3.org/2001/XMLSchema-instance" xsi:noNamespaceSchemaLocation="http://sumo.dlr.de/xsd/sumoConfiguration.xsd">

    <input>
        <net-file value="network/net.net.xml"/>
        <route-files value="network/grid.rou.xml"/>
    </input>

    <output>
        <tripinfo-output value="tripinfo.xml"/>
    </output>

    <report>
        <no-warnings value="true"/>
    </report>

    <traci_server>
        <remote-port value="49283"/>
    </traci_server>

</configuration>
-->

<tripinfos xmlns:xsi="http://www.w3.org/2001/XMLSchema-instance" xsi:noNamespaceSchemaLocation="http://sumo.dlr.de/xsd/tripinfo_file.xsd">
    <tripinfo id="EGO_vl0" depart="0.00" departLane="7_0" departPos="5.10" departSpeed="0.00" departDelay="0.00" arrival="11.00" arrivalLane="2_0" arrivalPos="92.80" arrivalSpeed="10.00" duration="11.00" routeLength="189.53" waitingTime="1.00" waitingCount="1" stopTime="0.00" timeLoss="0.55" rerouteNo="0" devices="tripinfo_EGO_vl0" vType="car" speedFactor="1.06" vaporized="teleport"/>
    <tripinfo id="EGO_vl2" depart="0.00" departLane="6_0" departPos="5.10" departSpeed="0.00" departDelay="0.00" arrival="12.00" arrivalLane="0_0" arrivalPos="92.80" arrivalSpeed="10.00" duration="12.00" routeLength="189.53" waitingTime="2.00" waitingCount="1" stopTime="0.00" timeLoss="1.48" rerouteNo="0" devices="tripinfo_EGO_vl2" vType="car" speedFactor="1.01" vaporized="teleport"/>
    <tripinfo id="EGO_vl5" depart="0.00" departLane="4_0" departPos="5.10" departSpeed="0.00" departDelay="0.00" arrival="20.00" arrivalLane="2_0" arrivalPos="92.80" arrivalSpeed="10.00" duration="20.00" routeLength="194.70" waitingTime="0.00" waitingCount="0" stopTime="0.00" timeLoss="-1.01" rerouteNo="0" devices="tripinfo_EGO_vl5" vType="car" speedFactor="0.83" vaporized=""/>
    <tripinfo id="EGO_vl1" depart="0.00" departLane="5_0" departPos="5.10" departSpeed="0.00" departDelay="0.00" arrival="21.00" arrivalLane="0_0" arrivalPos="92.80" arrivalSpeed="10.00" duration="21.00" routeLength="194.69" waitingTime="1.00" waitingCount="1" stopTime="0.00" timeLoss="0.34" rerouteNo="0" devices="tripinfo_EGO_vl1" vType="car" speedFactor="0.94" vaporized=""/>
    <tripinfo id="EGO_vl9" depart="1.00" departLane="5_0" departPos="5.10" departSpeed="0.00" departDelay="1.00" arrival="22.00" arrivalLane="3_0" arrivalPos="92.80" arrivalSpeed="10.00" duration="21.00" routeLength="189.53" waitingTime="1.00" waitingCount="1" stopTime="0.00" timeLoss="0.96" rerouteNo="0" devices="tripinfo_EGO_vl9" vType="car" speedFactor="0.86" vaporized=""/>
    <tripinfo id="EGO_vl10" depart="1.00" departLane="7_0" departPos="5.10" departSpeed="0.00" departDelay="1.00" arrival="23.00" arrivalLane="0_0" arrivalPos="92.80" arrivalSpeed="10.00" duration="22.00" routeLength="194.90" waitingTime="1.00" waitingCount="1" stopTime="0.00" timeLoss="2.21" rerouteNo="0" devices="tripinfo_EGO_vl10" vType="car" speedFactor="1.09" vaporized=""/>
    <tripinfo id="EGO_vl13" depart="3.00" departLane="7_0" departPos="5.10" departSpeed="0.00" departDelay="3.00" arrival="25.00" arrivalLane="2_0" arrivalPos="92.80" arrivalSpeed="10.00" duration="22.00" routeLength="189.53" waitingTime="1.00" waitingCount="1" stopTime="0.00" timeLoss="2.50" rerouteNo="0" devices="tripinfo_EGO_vl13" vType="car" speedFactor="1.12" vaporized=""/>
    <tripinfo id="EGO_vl14" depart="3.00" departLane="4_0" departPos="5.10" departSpeed="0.00" departDelay="3.00" arrival="26.00" arrivalLane="3_0" arrivalPos="92.80" arrivalSpeed="10.00" duration="23.00" routeLength="194.90" waitingTime="1.00" waitingCount="1" stopTime="0.00" timeLoss="2.58" rerouteNo="0" devices="tripinfo_EGO_vl14" vType="car" speedFactor="0.99" vaporized=""/>
    <tripinfo id="EGO_vl3" depart="1.00" departLane="6_0" departPos="5.10" departSpeed="0.00" departDelay="1.00" arrival="27.00" arrivalLane="3_0" arrivalPos="92.80" arrivalSpeed="10.00" duration="26.00" routeLength="194.69" waitingTime="4.00" waitingCount="2" stopTime="0.00" timeLoss="6.35" rerouteNo="0" devices="tripinfo_EGO_vl3" vType="car" speedFactor="1.08" vaporized=""/>
    <tripinfo id="EGO_vl20" depart="5.00" departLane="7_0" departPos="5.10" departSpeed="0.00" departDelay="5.00" arrival="27.00" arrivalLane="2_0" arrivalPos="92.80" arrivalSpeed="10.00" duration="22.00" routeLength="189.53" waitingTime="1.00" waitingCount="1" stopTime="0.00" timeLoss="2.59" rerouteNo="0" devices="tripinfo_EGO_vl20" vType="car" speedFactor="1.02" vaporized=""/>
    <tripinfo id="EGO_vl6" depart="1.00" departLane="4_0" departPos="5.10" departSpeed="0.00" departDelay="1.00" arrival="29.00" arrivalLane="2_0" arrivalPos="92.80" arrivalSpeed="10.00" duration="28.00" routeLength="194.70" waitingTime="6.00" waitingCount="1" stopTime="0.00" timeLoss="8.01" rerouteNo="0" devices="tripinfo_EGO_vl6" vType="car" speedFactor="1.05" vaporized=""/>
    <tripinfo id="EGO_vl12" depart="3.00" departLane="5_0" departPos="5.10" departSpeed="0.00" departDelay="3.00" arrival="31.00" arrivalLane="2_0" arrivalPos="92.80" arrivalSpeed="10.00" duration="28.00" routeLength="194.90" waitingTime="6.00" waitingCount="2" stopTime="0.00" timeLoss="8.05" rerouteNo="0" devices="tripinfo_EGO_vl12" vType="car" speedFactor="1.05" vaporized=""/>
    <tripinfo id="EGO_vl17" depart="5.00" departLane="5_0" departPos="5.10" departSpeed="0.00" departDelay="5.00" arrival="32.00" arrivalLane="0_0" arrivalPos="92.80" arrivalSpeed="10.00" duration="27.00" routeLength="194.69" waitingTime="6.00" waitingCount="2" stopTime="0.00" timeLoss="6.34" rerouteNo="0" devices="tripinfo_EGO_vl17" vType="car" speedFactor="0.94" vaporized=""/>
    <tripinfo id="EGO_vl4" depart="3.00" departLane="6_0" departPos="5.10" departSpeed="0.00" departDelay="3.00" arrival="33.00" arrivalLane="3_0" arrivalPos="92.80" arrivalSpeed="10.00" duration="30.00" routeLength="194.69" waitingTime="9.00" waitingCount="2" stopTime="0.00" timeLoss="9.56" rerouteNo="0" devices="tripinfo_EGO_vl4" vType="car" speedFactor="1.03" vaporized=""/>
    <tripinfo id="EGO_vl21" depart="5.00" departLane="4_0" departPos="5.10" departSpeed="0.00" departDelay="5.00" arrival="34.00" arrivalLane="2_0" arrivalPos="92.80" arrivalSpeed="10.00" duration="29.00" routeLength="194.70" waitingTime="7.00" waitingCount="2" stopTime="0.00" timeLoss="8.35" rerouteNo="0" devices="tripinfo_EGO_vl21" vType="car" speedFactor="1.01" vaporized=""/>
    <tripinfo id="EGO_vl18" depart="7.00" departLane="5_0" departPos="5.10" departSpeed="0.00" departDelay="7.00" arrival="36.00" arrivalLane="0_0" arrivalPos="92.80" arrivalSpeed="10.00" duration="29.00" routeLength="194.69" waitingTime="7.00" waitingCount="3" stopTime="0.00" timeLoss="8.49" rerouteNo="0" devices="tripinfo_EGO_vl18" vType="car" speedFactor="0.94" vaporized=""/>
    <tripinfo id="EGO_vl25" depart="7.00" departLane="4_0" departPos="5.10" departSpeed="0.00" departDelay="7.00" arrival="37.00" arrivalLane="1_0" arrivalPos="92.80" arrivalSpeed="10.00" duration="30.00" routeLength="189.53" waitingTime="9.00" waitingCount="3" stopTime="0.00" timeLoss="9.57" rerouteNo="0" devices="tripinfo_EGO_vl25" vType="car" speedFactor="0.87" vaporized=""/>
    <tripinfo id="EGO_vl27" depart="8.00" departLane="4_0" departPos="5.10" departSpeed="0.00" departDelay="8.00" arrival="44.00" arrivalLane="3_0" arrivalPos="92.80" arrivalSpeed="10.00" duration="36.00" routeLength="194.90" waitingTime="14.00" waitingCount="3" stopTime="0.00" timeLoss="16.08" rerouteNo="0" devices="tripinfo_EGO_vl27" vType="car" speedFactor="0.95" vaporized=""/>
    <tripinfo id="EGO_vl35" depart="8.00" departLane="5_0" departPos="5.10" departSpeed="0.00" departDelay="8.00" arrival="44.00" arrivalLane="2_0" arrivalPos="92.80" arrivalSpeed="10.00" duration="36.00" routeLength="194.90" waitingTime="14.00" waitingCount="3" stopTime="0.00" timeLoss="15.99" rerouteNo="0" devices="tripinfo_EGO_vl35" vType="car" speedFactor="1.02" vaporized=""/>
    <tripinfo id="EGO_vl36" depart="10.00" departLane="4_0" departPos="5.10" departSpeed="0.00" departDelay="10.00" arrival="46.00" arrivalLane="2_0" arrivalPos="92.80" arrivalSpeed="10.00" duration="36.00" routeLength="194.70" waitingTime="14.00" waitingCount="3" stopTime="0.00" timeLoss="16.06" rerouteNo="0" devices="tripinfo_EGO_vl36" vType="car" speedFactor="0.97" vaporized=""/>
    <tripinfo id="EGO_vl39" depart="12.00" departLane="4_0" departPos="5.10" departSpeed="0.00" departDelay="12.00" arrival="49.00" arrivalLane="2_0" arrivalPos="92.80" arrivalSpeed="10.00" duration="37.00" routeLength="194.70" waitingTime="14.00" waitingCount="3" stopTime="0.00" timeLoss="16.09" rerouteNo="0" devices="tripinfo_EGO_vl39" vType="car" speedFactor="0.90" vaporized=""/>
    <tripinfo id="EGO_vl41" depart="14.00" departLane="4_0" departPos="5.10" departSpeed="0.00" departDelay="14.00" arrival="50.00" arrivalLane="3_0" arrivalPos="92.80" arrivalSpeed="10.00" duration="36.00" routeLength="194.90" waitingTime="14.00" waitingCount="3" stopTime="0.00" timeLoss="16.12" rerouteNo="0" devices="tripinfo_EGO_vl41" vType="car" speedFactor="0.96" vaporized=""/>
    <tripinfo id="EGO_vl7" depart="5.00" departLane="6_0" departPos="5.10" departSpeed="0.00" departDelay="5.00" arrival="53.00" arrivalLane="1_0" arrivalPos="92.80" arrivalSpeed="10.00" duration="48.00" routeLength="194.90" waitingTime="27.00" waitingCount="3" stopTime="0.00" timeLoss="28.24" rerouteNo="0" devices="tripinfo_EGO_vl7" vType="car" speedFactor="0.89" vaporized=""/>
    <tripinfo id="EGO_vl8" depart="7.00" departLane="6_0" departPos="5.10" departSpeed="0.00" departDelay="7.00" arrival="56.00" arrivalLane="0_0" arrivalPos="92.80" arrivalSpeed="10.00" duration="49.00" routeLength="189.53" waitingTime="29.00" waitingCount="3" stopTime="0.00" timeLoss="29.35" rerouteNo="0" devices="tripinfo_EGO_vl8" vType="car" speedFactor="0.94" vaporized=""/>
    <tripinfo id="EGO_vl11" depart="8.00" departLane="6_0" departPos="5.10" departSpeed="0.00" departDelay="8.00" arrival="59.00" arrivalLane="1_0" arrivalPos="92.80" arrivalSpeed="10.00" duration="51.00" routeLength="194.90" waitingTime="29.00" waitingCount="3" stopTime="0.00" timeLoss="31.24" rerouteNo="0" devices="tripinfo_EGO_vl11" vType="car" speedFactor="1.03" vaporized=""/>
    <tripinfo id="EGO_vl15" depart="10.00" departLane="6_0" departPos="5.10" departSpeed="0.00" departDelay="10.00" arrival="61.00" arrivalLane="0_0" arrivalPos="92.80" arrivalSpeed="10.00" duration="51.00" routeLength="189.53" waitingTime="30.00" waitingCount="4" stopTime="0.00" timeLoss="31.33" rerouteNo="0" devices="tripinfo_EGO_vl15" vType="car" speedFactor="0.93" vaporized=""/>
    <tripinfo id="EGO_vl16" depart="12.00" departLane="6_0" departPos="5.10" departSpeed="0.00" departDelay="12.00" arrival="65.00" arrivalLane="0_0" arrivalPos="92.80" arrivalSpeed="10.00" duration="53.00" routeLength="189.53" waitingTime="30.00" waitingCount="4" stopTime="0.00" timeLoss="32.67" rerouteNo="0" devices="tripinfo_EGO_vl16" vType="car" speedFactor="0.88" vaporized=""/>
    <tripinfo id="EGO_vl19" depart="14.00" departLane="6_0" departPos="5.10" departSpeed="0.00" departDelay="14.00" arrival="66.00" arrivalLane="0_0" arrivalPos="92.80" arrivalSpeed="10.00" duration="52.00" routeLength="189.53" waitingTime="31.00" waitingCount="5" stopTime="0.00" timeLoss="32.66" rerouteNo="0" devices="tripinfo_EGO_vl19" vType="car" speedFactor="1.16" vaporized=""/>
    <tripinfo id="EGO_vl22" depart="7.00" departLane="7_0" departPos="5.10" departSpeed="0.00" departDelay="7.00" arrival="70.00" arrivalLane="1_0" arrivalPos="92.80" arrivalSpeed="10.00" duration="63.00" routeLength="194.70" waitingTime="42.00" waitingCount="2" stopTime="0.00" timeLoss="42.96" rerouteNo="0" devices="tripinfo_EGO_vl22" vType="car" speedFactor="0.98" vaporized=""/>
    <tripinfo id="EGO_vl28" depart="15.00" departLane="6_0" departPos="5.10" departSpeed="0.00" departDelay="15.00" arrival="71.00" arrivalLane="3_0" arrivalPos="92.80" arrivalSpeed="10.00" duration="56.00" routeLength="194.69" waitingTime="33.00" waitingCount="6" stopTime="0.00" timeLoss="35.64" rerouteNo="0" devices="tripinfo_EGO_vl28" vType="car" speedFactor="1.13" vaporized=""/>
    <tripinfo id="EGO_vl23" depart="8.00" departLane="7_0" departPos="5.10" departSpeed="0.00" departDelay="8.00" arrival="72.00" arrivalLane="0_0" arrivalPos="92.80" arrivalSpeed="10.00" duration="64.00" routeLength="194.90" waitingTime="42.00" waitingCount="2" stopTime="0.00" timeLoss="43.99" rerouteNo="0" devices="tripinfo_EGO_vl23" vType="car" speedFactor="0.89" vaporized=""/>
    <tripinfo id="EGO_vl24" depart="10.00" departLane="7_0" departPos="5.10" departSpeed="0.00" departDelay="10.00" arrival="74.00" arrivalLane="0_0" arrivalPos="92.80" arrivalSpeed="10.00" duration="64.00" routeLength="194.90" waitingTime="42.00" waitingCount="2" stopTime="0.00" timeLoss="43.74" rerouteNo="0" devices="tripinfo_EGO_vl24" vType="car" speedFactor="0.83" vaporized=""/>
    <tripinfo id="EGO_vl26" depart="12.00" departLane="7_0" departPos="5.10" departSpeed="0.00" departDelay="12.00" arrival="76.00" arrivalLane="1_0" arrivalPos="92.80" arrivalSpeed="10.00" duration="64.00" routeLength="194.70" waitingTime="42.00" waitingCount="2" stopTime="0.00" timeLoss="43.86" rerouteNo="0" devices="tripinfo_EGO_vl26" vType="car" speedFactor="0.92" vaporized=""/>
    <tripinfo id="EGO_vl32" depart="17.00" departLane="6_0" departPos="5.10" departSpeed="0.00" departDelay="17.00" arrival="76.00" arrivalLane="0_0" arrivalPos="92.80" arrivalSpeed="10.00" duration="59.00" routeLength="189.53" waitingTime="35.00" waitingCount="7" stopTime="0.00" timeLoss="39.26" rerouteNo="0" devices="tripinfo_EGO_vl32" vType="car" speedFactor="1.01" vaporized=""/>
    <tripinfo id="EGO_vl29" depart="14.00" departLane="7_0" departPos="5.10" departSpeed="0.00" departDelay="14.00" arrival="78.00" arrivalLane="2_0" arrivalPos="92.80" arrivalSpeed="10.00" duration="64.00" routeLength="189.53" waitingTime="43.00" waitingCount="3" stopTime="0.00" timeLoss="43.93" rerouteNo="0" devices="tripinfo_EGO_vl29" vType="car" speedFactor="0.93" vaporized=""/>
    <tripinfo id="EGO_vl37" depart="21.00" departLane="6_0" departPos="5.10" departSpeed="0.00" departDelay="21.00" arrival="78.00" arrivalLane="3_0" arrivalPos="92.80" arrivalSpeed="10.00" duration="57.00" routeLength="194.69" waitingTime="34.00" waitingCount="6" stopTime="0.00" timeLoss="36.87" rerouteNo="0" devices="tripinfo_EGO_vl37" vType="car" speedFactor="1.18" vaporized=""/>
    <tripinfo id="EGO_vl30" depart="15.00" departLane="7_0" departPos="5.10" departSpeed="0.00" departDelay="15.00" arrival="80.00" arrivalLane="0_0" arrivalPos="92.80" arrivalSpeed="10.00" duration="65.00" routeLength="194.90" waitingTime="43.00" waitingCount="3" stopTime="0.00" timeLoss="45.33" rerouteNo="0" devices="tripinfo_EGO_vl30" vType="car" speedFactor="1.18" vaporized=""/>
    <tripinfo id="EGO_vl31" depart="17.00" departLane="7_0" departPos="5.10" departSpeed="0.00" departDelay="17.00" arrival="82.00" arrivalLane="1_0" arrivalPos="92.80" arrivalSpeed="10.00" duration="65.00" routeLength="194.70" waitingTime="43.00" waitingCount="3" stopTime="0.00" timeLoss="45.16" rerouteNo="0" devices="tripinfo_EGO_vl31" vType="car" speedFactor="1.15" vaporized=""/>
    <tripinfo id="EGO_vl49" depart="23.00" departLane="6_0" departPos="5.10" departSpeed="0.00" departDelay="23.00" arrival="83.00" arrivalLane="0_0" arrivalPos="92.80" arrivalSpeed="10.00" duration="60.00" routeLength="189.53" waitingTime="36.00" waitingCount="7" stopTime="0.00" timeLoss="39.69" rerouteNo="0" devices="tripinfo_EGO_vl49" vType="car" speedFactor="0.85" vaporized=""/>
    <tripinfo id="EGO_vl33" depart="20.00" departLane="7_0" departPos="5.10" departSpeed="0.00" departDelay="20.00" arrival="84.00" arrivalLane="0_0" arrivalPos="92.80" arrivalSpeed="10.00" duration="64.00" routeLength="194.90" waitingTime="42.00" waitingCount="2" stopTime="0.00" timeLoss="44.35" rerouteNo="0" devices="tripinfo_EGO_vl33" vType="car" speedFactor="1.17" vaporized=""/>
    <tripinfo id="EGO_vl34" depart="22.00" departLane="7_0" departPos="5.10" departSpeed="0.00" departDelay="22.00" arrival="86.00" arrivalLane="2_0" arrivalPos="92.80" arrivalSpeed="10.00" duration="64.00" routeLength="189.53" waitingTime="42.00" waitingCount="2" stopTime="0.00" timeLoss="44.14" rerouteNo="0" devices="tripinfo_EGO_vl34" vType="car" speedFactor="0.99" vaporized=""/>
    <tripinfo id="EGO_vl38" depart="24.00" departLane="7_0" departPos="5.10" departSpeed="0.00" departDelay="24.00" arrival="88.00" arrivalLane="0_0" arrivalPos="92.80" arrivalSpeed="10.00" duration="64.00" routeLength="194.90" waitingTime="42.00" waitingCount="2" stopTime="0.00" timeLoss="44.20" rerouteNo="0" devices="tripinfo_EGO_vl38" vType="car" speedFactor="1.10" vaporized=""/>
    <tripinfo id="EGO_vl40" depart="26.00" departLane="7_0" departPos="5.10" departSpeed="0.00" departDelay="26.00" arrival="90.00" arrivalLane="0_0" arrivalPos="92.80" arrivalSpeed="10.00" duration="64.00" routeLength="194.90" waitingTime="42.00" waitingCount="2" stopTime="0.00" timeLoss="43.95" rerouteNo="0" devices="tripinfo_EGO_vl40" vType="car" speedFactor="1.03" vaporized=""/>
    <tripinfo id="EGO_vl42" depart="28.00" departLane="7_0" departPos="5.10" departSpeed="0.00" departDelay="28.00" arrival="92.00" arrivalLane="0_0" arrivalPos="92.80" arrivalSpeed="10.00" duration="64.00" routeLength="194.90" waitingTime="42.00" waitingCount="2" stopTime="0.00" timeLoss="43.70" rerouteNo="0" devices="tripinfo_EGO_vl42" vType="car" speedFactor="1.09" vaporized=""/>
    <tripinfo id="EGO_vl43" depart="10.00" departLane="5_0" departPos="5.10" departSpeed="0.00" departDelay="10.00" arrival="103.00" arrivalLane="0_0" arrivalPos="92.80" arrivalSpeed="10.00" duration="93.00" routeLength="194.69" waitingTime="71.00" waitingCount="4" stopTime="0.00" timeLoss="73.04" rerouteNo="0" devices="tripinfo_EGO_vl43" vType="car" speedFactor="1.04" vaporized=""/>
    <tripinfo id="EGO_vl44" depart="71.00" departLane="7_0" departPos="5.10" departSpeed="0.00" departDelay="71.00" arrival="103.00" arrivalLane="1_0" arrivalPos="92.80" arrivalSpeed="10.00" duration="32.00" routeLength="194.70" waitingTime="11.00" waitingCount="2" stopTime="0.00" timeLoss="12.25" rerouteNo="0" devices="tripinfo_EGO_vl44" vType="car" speedFactor="1.04" vaporized=""/>
    <tripinfo id="EGO_vl45" depart="72.00" departLane="7_0" departPos="5.10" departSpeed="0.00" departDelay="72.00" arrival="108.00" arrivalLane="0_0" arrivalPos="92.80" arrivalSpeed="10.00" duration="36.00" routeLength="194.90" waitingTime="15.00" waitingCount="3" stopTime="0.00" timeLoss="16.20" rerouteNo="0" devices="tripinfo_EGO_vl45" vType="car" speedFactor="1.09" vaporized=""/>
    <tripinfo id="EGO_vl46" depart="74.00" departLane="7_0" departPos="5.10" departSpeed="0.00" departDelay="74.00" arrival="110.00" arrivalLane="0_0" arrivalPos="92.80" arrivalSpeed="10.00" duration="36.00" routeLength="194.90" waitingTime="14.00" waitingCount="2" stopTime="0.00" timeLoss="15.95" rerouteNo="0" devices="tripinfo_EGO_vl46" vType="car" speedFactor="1.00" vaporized=""/>
    <tripinfo id="EGO_vl47" depart="76.00" departLane="7_0" departPos="5.10" departSpeed="0.00" departDelay="76.00" arrival="112.00" arrivalLane="1_0" arrivalPos="92.80" arrivalSpeed="10.00" duration="36.00" routeLength="194.70" waitingTime="14.00" waitingCount="2" stopTime="0.00" timeLoss="15.98" rerouteNo="0" devices="tripinfo_EGO_vl47" vType="car" speedFactor="0.90" vaporized=""/>
    <tripinfo id="EGO_vl48" depart="79.00" departLane="7_0" departPos="5.10" departSpeed="0.00" departDelay="79.00" arrival="114.00" arrivalLane="0_0" arrivalPos="92.80" arrivalSpeed="10.00" duration="35.00" routeLength="194.90" waitingTime="13.00" waitingCount="1" stopTime="0.00" timeLoss="14.73" rerouteNo="0" devices="tripinfo_EGO_vl48" vType="car" speedFactor="0.88" vaporized=""/>
</tripinfos>
