<?xml version="1.0" encoding="UTF-8"?>

<!-- generated on 2022-04-14 11:35:11 by Eclipse SUMO sumo Version 1.12.0
<configuration xmlns:xsi="http://www.w3.org/2001/XMLSchema-instance" xsi:noNamespaceSchemaLocation="http://sumo.dlr.de/xsd/sumoConfiguration.xsd">

    <input>
        <net-file value="network/net.net.xml"/>
        <route-files value="network/grid.rou.xml"/>
    </input>

    <output>
        <tripinfo-output value="tripinfo.xml"/>
    </output>

    <report>
        <no-warnings value="true"/>
    </report>

    <traci_server>
        <remote-port value="53409"/>
    </traci_server>

</configuration>
-->

<tripinfos xmlns:xsi="http://www.w3.org/2001/XMLSchema-instance" xsi:noNamespaceSchemaLocation="http://sumo.dlr.de/xsd/tripinfo_file.xsd">
    <tripinfo id="EGO_vl2" depart="0.00" departLane="5_0" departPos="5.10" departSpeed="0.00" departDelay="0.00" arrival="21.00" arrivalLane="2_0" arrivalPos="92.80" arrivalSpeed="10.00" duration="21.00" routeLength="194.90" waitingTime="1.00" waitingCount="1" stopTime="0.00" timeLoss="1.00" rerouteNo="0" devices="tripinfo_EGO_vl2" vType="car" speedFactor="1.01" vaporized=""/>
    <tripinfo id="EGO_vl1" depart="0.00" departLane="6_0" departPos="5.10" departSpeed="0.00" departDelay="0.00" arrival="22.00" arrivalLane="3_0" arrivalPos="92.80" arrivalSpeed="10.00" duration="22.00" routeLength="194.69" waitingTime="2.00" waitingCount="1" stopTime="0.00" timeLoss="1.34" rerouteNo="0" devices="tripinfo_EGO_vl1" vType="car" speedFactor="0.94" vaporized=""/>
    <tripinfo id="EGO_vl4" depart="1.00" departLane="5_0" departPos="5.10" departSpeed="0.00" departDelay="1.00" arrival="24.00" arrivalLane="3_0" arrivalPos="92.80" arrivalSpeed="10.00" duration="23.00" routeLength="189.53" waitingTime="2.00" waitingCount="2" stopTime="0.00" timeLoss="3.57" rerouteNo="0" devices="tripinfo_EGO_vl4" vType="car" speedFactor="1.03" vaporized=""/>
    <tripinfo id="EGO_vl7" depart="3.00" departLane="5_0" departPos="5.10" departSpeed="0.00" departDelay="3.00" arrival="25.00" arrivalLane="3_0" arrivalPos="92.80" arrivalSpeed="10.00" duration="22.00" routeLength="189.53" waitingTime="2.00" waitingCount="2" stopTime="0.00" timeLoss="2.26" rerouteNo="0" devices="tripinfo_EGO_vl7" vType="car" speedFactor="0.89" vaporized=""/>
    <tripinfo id="EGO_vl8" depart="5.00" departLane="5_0" departPos="5.10" departSpeed="0.00" departDelay="5.00" arrival="28.00" arrivalLane="3_0" arrivalPos="92.80" arrivalSpeed="10.00" duration="23.00" routeLength="189.53" waitingTime="2.00" waitingCount="2" stopTime="0.00" timeLoss="3.63" rerouteNo="0" devices="tripinfo_EGO_vl8" vType="car" speedFactor="0.94" vaporized=""/>
    <tripinfo id="EGO_vl14" depart="0.00" departLane="7_0" departPos="5.10" departSpeed="0.00" departDelay="0.00" arrival="30.00" arrivalLane="1_0" arrivalPos="92.80" arrivalSpeed="10.00" duration="30.00" routeLength="194.70" waitingTime="10.00" waitingCount="1" stopTime="0.00" timeLoss="9.48" rerouteNo="0" devices="tripinfo_EGO_vl14" vType="car" speedFactor="0.99" vaporized=""/>
    <tripinfo id="EGO_vl21" depart="3.00" departLane="7_0" departPos="5.10" departSpeed="0.00" departDelay="3.00" arrival="29.00" arrivalLane="1_0" arrivalPos="92.80" arrivalSpeed="10.00" duration="26.00" routeLength="194.70" waitingTime="15.00" waitingCount="2" stopTime="0.00" timeLoss="15.35" rerouteNo="0" devices="tripinfo_EGO_vl21" vType="car" speedFactor="1.01" vaporized="teleport"/>
    <tripinfo id="EGO_vl11" depart="7.00" departLane="5_0" departPos="5.10" departSpeed="0.00" departDelay="7.00" arrival="31.00" arrivalLane="0_0" arrivalPos="92.80" arrivalSpeed="10.00" duration="24.00" routeLength="194.69" waitingTime="3.00" waitingCount="3" stopTime="0.00" timeLoss="3.55" rerouteNo="0" devices="tripinfo_EGO_vl11" vType="car" speedFactor="1.03" vaporized=""/>
    <tripinfo id="EGO_vl3" depart="1.00" departLane="6_0" departPos="5.10" departSpeed="0.00" departDelay="1.00" arrival="32.00" arrivalLane="0_0" arrivalPos="92.80" arrivalSpeed="10.00" duration="31.00" routeLength="189.53" waitingTime="11.00" waitingCount="2" stopTime="0.00" timeLoss="11.33" rerouteNo="0" devices="tripinfo_EGO_vl3" vType="car" speedFactor="1.08" vaporized=""/>
    <tripinfo id="EGO_vl19" depart="1.00" departLane="7_0" departPos="5.10" departSpeed="0.00" departDelay="1.00" arrival="33.00" arrivalLane="1_0" arrivalPos="92.80" arrivalSpeed="10.00" duration="32.00" routeLength="194.70" waitingTime="11.00" waitingCount="2" stopTime="0.00" timeLoss="11.83" rerouteNo="0" devices="tripinfo_EGO_vl19" vType="car" speedFactor="1.16" vaporized=""/>
    <tripinfo id="EGO_vl0" depart="0.00" departLane="4_0" departPos="5.10" departSpeed="0.00" departDelay="0.00" arrival="35.00" arrivalLane="1_0" arrivalPos="92.80" arrivalSpeed="10.00" duration="35.00" routeLength="189.53" waitingTime="16.00" waitingCount="1" stopTime="0.00" timeLoss="15.55" rerouteNo="0" devices="tripinfo_EGO_vl0" vType="car" speedFactor="1.06" vaporized=""/>
    <tripinfo id="EGO_vl5" depart="3.00" departLane="6_0" departPos="5.10" departSpeed="0.00" departDelay="3.00" arrival="35.00" arrivalLane="0_0" arrivalPos="92.80" arrivalSpeed="10.00" duration="32.00" routeLength="189.53" waitingTime="11.00" waitingCount="2" stopTime="0.00" timeLoss="11.96" rerouteNo="0" devices="tripinfo_EGO_vl5" vType="car" speedFactor="0.83" vaporized=""/>
    <tripinfo id="EGO_vl13" depart="5.00" departLane="6_0" departPos="5.10" departSpeed="0.00" departDelay="5.00" arrival="37.00" arrivalLane="3_0" arrivalPos="92.80" arrivalSpeed="10.00" duration="32.00" routeLength="194.69" waitingTime="11.00" waitingCount="2" stopTime="0.00" timeLoss="12.34" rerouteNo="0" devices="tripinfo_EGO_vl13" vType="car" speedFactor="1.12" vaporized=""/>
    <tripinfo id="EGO_vl6" depart="1.00" departLane="4_0" departPos="5.10" departSpeed="0.00" departDelay="1.00" arrival="38.00" arrivalLane="1_0" arrivalPos="92.80" arrivalSpeed="10.00" duration="37.00" routeLength="189.53" waitingTime="16.00" waitingCount="1" stopTime="0.00" timeLoss="17.07" rerouteNo="0" devices="tripinfo_EGO_vl6" vType="car" speedFactor="1.05" vaporized=""/>
    <tripinfo id="EGO_vl17" depart="7.00" departLane="6_0" departPos="5.10" departSpeed="0.00" departDelay="7.00" arrival="39.00" arrivalLane="0_0" arrivalPos="92.80" arrivalSpeed="10.00" duration="32.00" routeLength="189.53" waitingTime="12.00" waitingCount="3" stopTime="0.00" timeLoss="12.36" rerouteNo="0" devices="tripinfo_EGO_vl17" vType="car" speedFactor="0.94" vaporized=""/>
    <tripinfo id="EGO_vl20" depart="8.00" departLane="5_0" departPos="5.10" departSpeed="0.00" departDelay="8.00" arrival="39.00" arrivalLane="0_0" arrivalPos="92.80" arrivalSpeed="10.00" duration="31.00" routeLength="194.69" waitingTime="8.00" waitingCount="4" stopTime="0.00" timeLoss="10.43" rerouteNo="0" devices="tripinfo_EGO_vl20" vType="car" speedFactor="1.02" vaporized=""/>
    <tripinfo id="EGO_vl28" depart="5.00" departLane="7_0" departPos="5.10" departSpeed="0.00" departDelay="5.00" arrival="41.00" arrivalLane="0_0" arrivalPos="92.80" arrivalSpeed="10.00" duration="36.00" routeLength="194.90" waitingTime="15.00" waitingCount="2" stopTime="0.00" timeLoss="16.20" rerouteNo="0" devices="tripinfo_EGO_vl28" vType="car" speedFactor="1.13" vaporized=""/>
    <tripinfo id="EGO_vl24" depart="10.00" departLane="5_0" departPos="5.10" departSpeed="0.00" departDelay="10.00" arrival="42.00" arrivalLane="0_0" arrivalPos="92.80" arrivalSpeed="10.00" duration="32.00" routeLength="194.69" waitingTime="10.00" waitingCount="4" stopTime="0.00" timeLoss="10.96" rerouteNo="0" devices="tripinfo_EGO_vl24" vType="car" speedFactor="0.83" vaporized=""/>
    <tripinfo id="EGO_vl31" depart="7.00" departLane="7_0" departPos="5.10" departSpeed="0.00" departDelay="7.00" arrival="44.00" arrivalLane="0_0" arrivalPos="92.80" arrivalSpeed="10.00" duration="37.00" routeLength="194.90" waitingTime="16.00" waitingCount="3" stopTime="0.00" timeLoss="16.95" rerouteNo="0" devices="tripinfo_EGO_vl31" vType="car" speedFactor="1.15" vaporized=""/>
    <tripinfo id="EGO_vl32" depart="8.00" departLane="7_0" departPos="5.10" departSpeed="0.00" departDelay="8.00" arrival="46.00" arrivalLane="0_0" arrivalPos="92.80" arrivalSpeed="10.00" duration="38.00" routeLength="194.90" waitingTime="16.00" waitingCount="3" stopTime="0.00" timeLoss="17.70" rerouteNo="0" devices="tripinfo_EGO_vl32" vType="car" speedFactor="1.01" vaporized=""/>
    <tripinfo id="EGO_vl9" depart="3.00" departLane="4_0" departPos="5.10" departSpeed="0.00" departDelay="3.00" arrival="47.00" arrivalLane="2_0" arrivalPos="92.80" arrivalSpeed="10.00" duration="44.00" routeLength="194.70" waitingTime="22.00" waitingCount="2" stopTime="0.00" timeLoss="23.70" rerouteNo="0" devices="tripinfo_EGO_vl9" vType="car" speedFactor="0.86" vaporized=""/>
    <tripinfo id="EGO_vl18" depart="8.00" departLane="6_0" departPos="5.10" departSpeed="0.00" departDelay="8.00" arrival="48.00" arrivalLane="0_0" arrivalPos="92.80" arrivalSpeed="10.00" duration="40.00" routeLength="189.53" waitingTime="17.00" waitingCount="4" stopTime="0.00" timeLoss="20.22" rerouteNo="0" devices="tripinfo_EGO_vl18" vType="car" speedFactor="0.94" vaporized=""/>
    <tripinfo id="EGO_vl34" depart="10.00" departLane="7_0" departPos="5.10" departSpeed="0.00" departDelay="10.00" arrival="48.00" arrivalLane="1_0" arrivalPos="92.80" arrivalSpeed="10.00" duration="38.00" routeLength="194.70" waitingTime="16.00" waitingCount="3" stopTime="0.00" timeLoss="17.88" rerouteNo="0" devices="tripinfo_EGO_vl34" vType="car" speedFactor="0.99" vaporized=""/>
    <tripinfo id="EGO_vl38" depart="12.00" departLane="7_0" departPos="5.10" departSpeed="0.00" departDelay="12.00" arrival="50.00" arrivalLane="0_0" arrivalPos="92.80" arrivalSpeed="10.00" duration="38.00" routeLength="194.90" waitingTime="16.00" waitingCount="3" stopTime="0.00" timeLoss="17.99" rerouteNo="0" devices="tripinfo_EGO_vl38" vType="car" speedFactor="1.10" vaporized=""/>
    <tripinfo id="EGO_vl42" depart="14.00" departLane="7_0" departPos="5.10" departSpeed="0.00" departDelay="14.00" arrival="51.00" arrivalLane="2_0" arrivalPos="92.80" arrivalSpeed="10.00" duration="37.00" routeLength="189.53" waitingTime="16.00" waitingCount="3" stopTime="0.00" timeLoss="17.62" rerouteNo="0" devices="tripinfo_EGO_vl42" vType="car" speedFactor="1.09" vaporized=""/>
    <tripinfo id="EGO_vl10" depart="5.00" departLane="4_0" departPos="5.10" departSpeed="0.00" departDelay="5.00" arrival="52.00" arrivalLane="3_0" arrivalPos="92.80" arrivalSpeed="10.00" duration="47.00" routeLength="194.90" waitingTime="25.00" waitingCount="2" stopTime="0.00" timeLoss="26.58" rerouteNo="0" devices="tripinfo_EGO_vl10" vType="car" speedFactor="1.09" vaporized=""/>
    <tripinfo id="EGO_vl47" depart="15.00" departLane="7_0" departPos="5.10" departSpeed="0.00" departDelay="15.00" arrival="54.00" arrivalLane="2_0" arrivalPos="92.80" arrivalSpeed="10.00" duration="39.00" routeLength="189.53" waitingTime="16.00" waitingCount="3" stopTime="0.00" timeLoss="18.79" rerouteNo="0" devices="tripinfo_EGO_vl47" vType="car" speedFactor="0.90" vaporized=""/>
    <tripinfo id="EGO_vl12" depart="7.00" departLane="4_0" departPos="5.10" departSpeed="0.00" departDelay="7.00" arrival="56.00" arrivalLane="2_0" arrivalPos="92.80" arrivalSpeed="10.00" duration="49.00" routeLength="194.70" waitingTime="26.00" waitingCount="3" stopTime="0.00" timeLoss="28.42" rerouteNo="0" devices="tripinfo_EGO_vl12" vType="car" speedFactor="1.05" vaporized=""/>
    <tripinfo id="EGO_vl26" depart="10.00" departLane="6_0" departPos="5.10" departSpeed="0.00" departDelay="10.00" arrival="56.00" arrivalLane="0_0" arrivalPos="92.80" arrivalSpeed="10.00" duration="46.00" routeLength="189.53" waitingTime="25.00" waitingCount="4" stopTime="0.00" timeLoss="26.32" rerouteNo="0" devices="tripinfo_EGO_vl26" vType="car" speedFactor="0.92" vaporized=""/>
    <tripinfo id="EGO_vl15" depart="8.00" departLane="4_0" departPos="5.10" departSpeed="0.00" departDelay="8.00" arrival="57.00" arrivalLane="1_0" arrivalPos="92.80" arrivalSpeed="10.00" duration="49.00" routeLength="189.53" waitingTime="27.00" waitingCount="3" stopTime="0.00" timeLoss="28.93" rerouteNo="0" devices="tripinfo_EGO_vl15" vType="car" speedFactor="0.93" vaporized=""/>
    <tripinfo id="EGO_vl29" depart="12.00" departLane="5_0" departPos="5.10" departSpeed="0.00" departDelay="12.00" arrival="57.00" arrivalLane="2_0" arrivalPos="92.80" arrivalSpeed="10.00" duration="45.00" routeLength="194.90" waitingTime="23.00" waitingCount="5" stopTime="0.00" timeLoss="25.33" rerouteNo="0" devices="tripinfo_EGO_vl29" vType="car" speedFactor="0.93" vaporized=""/>
    <tripinfo id="EGO_vl36" depart="14.00" departLane="5_0" departPos="5.10" departSpeed="0.00" departDelay="14.00" arrival="59.00" arrivalLane="2_0" arrivalPos="92.80" arrivalSpeed="10.00" duration="45.00" routeLength="194.90" waitingTime="23.00" waitingCount="5" stopTime="0.00" timeLoss="24.99" rerouteNo="0" devices="tripinfo_EGO_vl36" vType="car" speedFactor="0.97" vaporized=""/>
    <tripinfo id="EGO_vl16" depart="10.00" departLane="4_0" departPos="5.10" departSpeed="0.00" departDelay="10.00" arrival="60.00" arrivalLane="3_0" arrivalPos="92.80" arrivalSpeed="10.00" duration="50.00" routeLength="194.90" waitingTime="27.00" waitingCount="3" stopTime="0.00" timeLoss="29.76" rerouteNo="0" devices="tripinfo_EGO_vl16" vType="car" speedFactor="0.88" vaporized=""/>
    <tripinfo id="EGO_vl22" depart="12.00" departLane="4_0" departPos="5.10" departSpeed="0.00" departDelay="12.00" arrival="62.00" arrivalLane="2_0" arrivalPos="92.80" arrivalSpeed="10.00" duration="50.00" routeLength="194.70" waitingTime="27.00" waitingCount="3" stopTime="0.00" timeLoss="29.86" rerouteNo="0" devices="tripinfo_EGO_vl22" vType="car" speedFactor="0.98" vaporized=""/>
    <tripinfo id="EGO_vl23" depart="14.00" departLane="4_0" departPos="5.10" departSpeed="0.00" departDelay="14.00" arrival="64.00" arrivalLane="3_0" arrivalPos="92.80" arrivalSpeed="10.00" duration="50.00" routeLength="194.90" waitingTime="27.00" waitingCount="3" stopTime="0.00" timeLoss="29.58" rerouteNo="0" devices="tripinfo_EGO_vl23" vType="car" speedFactor="0.89" vaporized=""/>
    <tripinfo id="EGO_vl25" depart="15.00" departLane="4_0" departPos="5.10" departSpeed="0.00" departDelay="15.00" arrival="65.00" arrivalLane="3_0" arrivalPos="92.80" arrivalSpeed="10.00" duration="50.00" routeLength="194.90" waitingTime="27.00" waitingCount="3" stopTime="0.00" timeLoss="30.33" rerouteNo="0" devices="tripinfo_EGO_vl25" vType="car" speedFactor="0.87" vaporized=""/>
    <tripinfo id="EGO_vl30" depart="17.00" departLane="4_0" departPos="5.10" departSpeed="0.00" departDelay="17.00" arrival="67.00" arrivalLane="2_0" arrivalPos="92.80" arrivalSpeed="10.00" duration="50.00" routeLength="194.70" waitingTime="27.00" waitingCount="3" stopTime="0.00" timeLoss="30.14" rerouteNo="0" devices="tripinfo_EGO_vl30" vType="car" speedFactor="1.18" vaporized=""/>
    <tripinfo id="EGO_vl39" depart="15.00" departLane="5_0" departPos="5.10" departSpeed="0.00" departDelay="15.00" arrival="69.00" arrivalLane="2_0" arrivalPos="92.80" arrivalSpeed="10.00" duration="54.00" routeLength="194.90" waitingTime="30.00" waitingCount="6" stopTime="0.00" timeLoss="33.99" rerouteNo="0" devices="tripinfo_EGO_vl39" vType="car" speedFactor="0.90" vaporized=""/>
    <tripinfo id="EGO_vl33" depart="35.00" departLane="4_0" departPos="5.10" departSpeed="0.00" departDelay="35.00" arrival="70.00" arrivalLane="1_0" arrivalPos="92.80" arrivalSpeed="10.00" duration="35.00" routeLength="189.53" waitingTime="13.00" waitingCount="3" stopTime="0.00" timeLoss="15.58" rerouteNo="0" devices="tripinfo_EGO_vl33" vType="car" speedFactor="1.17" vaporized=""/>
    <tripinfo id="EGO_vl27" depart="12.00" departLane="6_0" departPos="5.10" departSpeed="0.00" departDelay="12.00" arrival="71.00" arrivalLane="3_0" arrivalPos="92.80" arrivalSpeed="10.00" duration="59.00" routeLength="194.69" waitingTime="34.00" waitingCount="5" stopTime="0.00" timeLoss="38.92" rerouteNo="0" devices="tripinfo_EGO_vl27" vType="car" speedFactor="0.95" vaporized=""/>
    <tripinfo id="EGO_vl43" depart="17.00" departLane="5_0" departPos="5.10" departSpeed="0.00" departDelay="17.00" arrival="72.00" arrivalLane="0_0" arrivalPos="92.80" arrivalSpeed="10.00" duration="55.00" routeLength="194.69" waitingTime="32.00" waitingCount="6" stopTime="0.00" timeLoss="34.58" rerouteNo="0" devices="tripinfo_EGO_vl43" vType="car" speedFactor="1.04" vaporized=""/>
    <tripinfo id="EGO_vl37" depart="14.00" departLane="6_0" departPos="5.10" departSpeed="0.00" departDelay="14.00" arrival="73.00" arrivalLane="1_0" arrivalPos="92.80" arrivalSpeed="10.00" duration="59.00" routeLength="194.90" waitingTime="37.00" waitingCount="5" stopTime="0.00" timeLoss="38.99" rerouteNo="0" devices="tripinfo_EGO_vl37" vType="car" speedFactor="1.18" vaporized=""/>
    <tripinfo id="EGO_vl35" depart="37.00" departLane="4_0" departPos="5.10" departSpeed="0.00" departDelay="37.00" arrival="75.00" arrivalLane="3_0" arrivalPos="92.80" arrivalSpeed="10.00" duration="38.00" routeLength="194.90" waitingTime="15.00" waitingCount="4" stopTime="0.00" timeLoss="17.92" rerouteNo="0" devices="tripinfo_EGO_vl35" vType="car" speedFactor="1.02" vaporized=""/>
    <tripinfo id="EGO_vl40" depart="39.00" departLane="4_0" departPos="5.10" departSpeed="0.00" departDelay="39.00" arrival="75.00" arrivalLane="1_0" arrivalPos="92.80" arrivalSpeed="10.00" duration="36.00" routeLength="189.53" waitingTime="14.00" waitingCount="4" stopTime="0.00" timeLoss="16.18" rerouteNo="0" devices="tripinfo_EGO_vl40" vType="car" speedFactor="1.03" vaporized=""/>
    <tripinfo id="EGO_vl44" depart="20.00" departLane="5_0" departPos="5.10" departSpeed="0.00" departDelay="20.00" arrival="77.00" arrivalLane="2_0" arrivalPos="92.80" arrivalSpeed="10.00" duration="57.00" routeLength="194.90" waitingTime="33.00" waitingCount="6" stopTime="0.00" timeLoss="37.08" rerouteNo="0" devices="tripinfo_EGO_vl44" vType="car" speedFactor="1.04" vaporized=""/>
    <tripinfo id="EGO_vl46" depart="41.00" departLane="4_0" departPos="5.10" departSpeed="0.00" departDelay="41.00" arrival="79.00" arrivalLane="3_0" arrivalPos="92.80" arrivalSpeed="10.00" duration="38.00" routeLength="194.90" waitingTime="15.00" waitingCount="5" stopTime="0.00" timeLoss="17.76" rerouteNo="0" devices="tripinfo_EGO_vl46" vType="car" speedFactor="1.00" vaporized=""/>
    <tripinfo id="EGO_vl48" depart="52.00" departLane="4_0" departPos="5.10" departSpeed="0.00" departDelay="52.00" arrival="80.00" arrivalLane="1_0" arrivalPos="92.80" arrivalSpeed="10.00" duration="28.00" routeLength="189.53" waitingTime="6.00" waitingCount="4" stopTime="0.00" timeLoss="7.76" rerouteNo="0" devices="tripinfo_EGO_vl48" vType="car" speedFactor="0.88" vaporized=""/>
    <tripinfo id="EGO_vl41" depart="15.00" departLane="6_0" departPos="5.10" departSpeed="0.00" departDelay="15.00" arrival="81.00" arrivalLane="3_0" arrivalPos="92.80" arrivalSpeed="10.00" duration="66.00" routeLength="194.69" waitingTime="42.00" waitingCount="6" stopTime="0.00" timeLoss="45.55" rerouteNo="0" devices="tripinfo_EGO_vl41" vType="car" speedFactor="0.96" vaporized=""/>
    <tripinfo id="EGO_vl45" depart="17.00" departLane="6_0" departPos="5.10" departSpeed="0.00" departDelay="17.00" arrival="82.00" arrivalLane="3_0" arrivalPos="92.80" arrivalSpeed="10.00" duration="65.00" routeLength="194.69" waitingTime="42.00" waitingCount="6" stopTime="0.00" timeLoss="44.69" rerouteNo="0" devices="tripinfo_EGO_vl45" vType="car" speedFactor="1.09" vaporized=""/>
    <tripinfo id="EGO_vl49" depart="54.00" departLane="4_0" departPos="5.10" departSpeed="0.00" departDelay="54.00" arrival="84.00" arrivalLane="2_0" arrivalPos="92.80" arrivalSpeed="10.00" duration="30.00" routeLength="194.70" waitingTime="7.00" waitingCount="5" stopTime="0.00" timeLoss="9.95" rerouteNo="0" devices="tripinfo_EGO_vl49" vType="car" speedFactor="0.85" vaporized=""/>
</tripinfos>
