<?xml version="1.0" encoding="UTF-8"?>

<!-- generated on 2022-03-23 10:16:15 by Eclipse SUMO sumo Version 1.12.0
<configuration xmlns:xsi="http://www.w3.org/2001/XMLSchema-instance" xsi:noNamespaceSchemaLocation="http://sumo.dlr.de/xsd/sumoConfiguration.xsd">

    <input>
        <net-file value="net.net.xml"/>
        <route-files value="grid.rou.xml"/>
    </input>

    <output>
        <tripinfo-output value="tripinfo.xml"/>
    </output>

    <traci_server>
        <remote-port value="63158"/>
    </traci_server>

</configuration>
-->

<tripinfos xmlns:xsi="http://www.w3.org/2001/XMLSchema-instance" xsi:noNamespaceSchemaLocation="http://sumo.dlr.de/xsd/tripinfo_file.xsd">
    <tripinfo id="rl_50" depart="0.00" departLane="5_0" departPos="5.10" departSpeed="0.00" departDelay="0.00" arrival="13.00" arrivalLane="0_0" arrivalPos="92.80" arrivalSpeed="10.00" duration="13.00" routeLength="194.69" waitingTime="2.00" waitingCount="1" stopTime="0.00" timeLoss="1.69" rerouteNo="0" devices="tripinfo_rl_50" vType="car" speedFactor="1.08" vaporized="teleport"/>
    <tripinfo id="rl_72" depart="3.00" departLane="7_0" departPos="5.10" departSpeed="0.00" departDelay="3.00" arrival="16.00" arrivalLane="2_0" arrivalPos="92.80" arrivalSpeed="10.00" duration="13.00" routeLength="189.53" waitingTime="1.00" waitingCount="1" stopTime="0.00" timeLoss="2.09" rerouteNo="0" devices="tripinfo_rl_72" vType="car" speedFactor="1.03" vaporized="teleport"/>
    <tripinfo id="rl_41" depart="0.00" departLane="4_0" departPos="5.10" departSpeed="0.00" departDelay="0.00" arrival="20.00" arrivalLane="1_0" arrivalPos="92.80" arrivalSpeed="10.00" duration="20.00" routeLength="189.53" waitingTime="1.00" waitingCount="1" stopTime="0.00" timeLoss="0.55" rerouteNo="0" devices="tripinfo_rl_41" vType="car" speedFactor="1.06" vaporized=""/>
    <tripinfo id="rl_70" depart="0.00" departLane="7_0" departPos="5.10" departSpeed="0.00" departDelay="0.00" arrival="20.00" arrivalLane="0_0" arrivalPos="92.80" arrivalSpeed="10.00" duration="20.00" routeLength="194.90" waitingTime="0.00" waitingCount="0" stopTime="0.00" timeLoss="0.00" rerouteNo="0" devices="tripinfo_rl_70" vType="car" speedFactor="0.86" vaporized=""/>
    <tripinfo id="rl_60" depart="0.00" departLane="6_0" departPos="5.10" departSpeed="0.00" departDelay="0.00" arrival="21.00" arrivalLane="0_0" arrivalPos="92.80" arrivalSpeed="10.00" duration="21.00" routeLength="189.53" waitingTime="2.00" waitingCount="1" stopTime="0.00" timeLoss="1.53" rerouteNo="0" devices="tripinfo_rl_60" vType="car" speedFactor="1.05" vaporized=""/>
    <tripinfo id="rl_42" depart="1.00" departLane="4_0" departPos="5.10" departSpeed="0.00" departDelay="1.00" arrival="24.00" arrivalLane="2_0" arrivalPos="92.80" arrivalSpeed="10.00" duration="23.00" routeLength="194.70" waitingTime="1.00" waitingCount="1" stopTime="0.00" timeLoss="2.78" rerouteNo="0" devices="tripinfo_rl_42" vType="car" speedFactor="0.94" vaporized=""/>
    <tripinfo id="rl_71" depart="1.00" departLane="7_0" departPos="5.10" departSpeed="0.00" departDelay="1.00" arrival="24.00" arrivalLane="1_0" arrivalPos="92.80" arrivalSpeed="10.00" duration="23.00" routeLength="194.70" waitingTime="1.00" waitingCount="1" stopTime="0.00" timeLoss="2.83" rerouteNo="0" devices="tripinfo_rl_71" vType="car" speedFactor="1.09" vaporized=""/>
    <tripinfo id="rl_43" depart="3.00" departLane="4_0" departPos="5.10" departSpeed="0.00" departDelay="3.00" arrival="26.00" arrivalLane="3_0" arrivalPos="92.80" arrivalSpeed="10.00" duration="23.00" routeLength="194.90" waitingTime="1.00" waitingCount="1" stopTime="0.00" timeLoss="2.92" rerouteNo="0" devices="tripinfo_rl_43" vType="car" speedFactor="1.01" vaporized=""/>
    <tripinfo id="rl_61" depart="1.00" departLane="6_0" departPos="5.10" departSpeed="0.00" departDelay="1.00" arrival="27.00" arrivalLane="1_0" arrivalPos="92.80" arrivalSpeed="10.00" duration="26.00" routeLength="194.90" waitingTime="4.00" waitingCount="2" stopTime="0.00" timeLoss="5.93" rerouteNo="0" devices="tripinfo_rl_61" vType="car" speedFactor="0.89" vaporized=""/>
    <tripinfo id="rl_52" depart="1.00" departLane="5_0" departPos="5.10" departSpeed="0.00" departDelay="1.00" arrival="28.00" arrivalLane="2_0" arrivalPos="92.80" arrivalSpeed="10.00" duration="27.00" routeLength="194.90" waitingTime="4.00" waitingCount="2" stopTime="0.00" timeLoss="7.08" rerouteNo="0" devices="tripinfo_rl_52" vType="car" speedFactor="1.03" vaporized=""/>
    <tripinfo id="rl_53" depart="3.00" departLane="5_0" departPos="5.10" departSpeed="0.00" departDelay="3.00" arrival="28.00" arrivalLane="3_0" arrivalPos="92.80" arrivalSpeed="10.00" duration="25.00" routeLength="189.53" waitingTime="5.00" waitingCount="2" stopTime="0.00" timeLoss="5.14" rerouteNo="0" devices="tripinfo_rl_53" vType="car" speedFactor="0.83" vaporized=""/>
    <tripinfo id="rl_63" depart="3.00" departLane="6_0" departPos="5.10" departSpeed="0.00" departDelay="3.00" arrival="30.00" arrivalLane="3_0" arrivalPos="92.80" arrivalSpeed="10.00" duration="27.00" routeLength="194.69" waitingTime="6.00" waitingCount="2" stopTime="0.00" timeLoss="6.33" rerouteNo="0" devices="tripinfo_rl_63" vType="car" speedFactor="0.94" vaporized=""/>
</tripinfos>
