<?xml version="1.0" encoding="UTF-8"?>

<!-- generated on 2022-04-12 15:32:26 by Eclipse SUMO sumo Version 1.12.0
<configuration xmlns:xsi="http://www.w3.org/2001/XMLSchema-instance" xsi:noNamespaceSchemaLocation="http://sumo.dlr.de/xsd/sumoConfiguration.xsd">

    <input>
        <net-file value="net.net.xml"/>
        <route-files value="grid.rou.xml"/>
    </input>

    <output>
        <tripinfo-output value="tripinfo.xml"/>
    </output>

    <report>
        <no-warnings value="true"/>
    </report>

    <traci_server>
        <remote-port value="50586"/>
    </traci_server>

</configuration>
-->

<tripinfos xmlns:xsi="http://www.w3.org/2001/XMLSchema-instance" xsi:noNamespaceSchemaLocation="http://sumo.dlr.de/xsd/tripinfo_file.xsd">
    <tripinfo id="EGO_vl1" depart="0.00" departLane="5_0" departPos="5.10" departSpeed="0.00" departDelay="0.00" arrival="19.00" arrivalLane="3_0" arrivalPos="92.80" arrivalSpeed="10.00" duration="19.00" routeLength="189.53" waitingTime="0.00" waitingCount="0" stopTime="0.00" timeLoss="-0.64" rerouteNo="0" devices="tripinfo_EGO_vl1" vType="car" speedFactor="0.94" vaporized=""/>
    <tripinfo id="EGO_vl4" depart="0.00" departLane="6_0" departPos="5.10" departSpeed="0.00" departDelay="0.00" arrival="20.00" arrivalLane="0_0" arrivalPos="92.80" arrivalSpeed="10.00" duration="20.00" routeLength="189.53" waitingTime="1.00" waitingCount="1" stopTime="0.00" timeLoss="0.51" rerouteNo="0" devices="tripinfo_EGO_vl4" vType="car" speedFactor="1.03" vaporized=""/>
    <tripinfo id="EGO_vl7" depart="0.00" departLane="7_0" departPos="5.10" departSpeed="0.00" departDelay="0.00" arrival="20.00" arrivalLane="1_0" arrivalPos="92.80" arrivalSpeed="10.00" duration="20.00" routeLength="194.70" waitingTime="0.00" waitingCount="0" stopTime="0.00" timeLoss="-0.82" rerouteNo="0" devices="tripinfo_EGO_vl7" vType="car" speedFactor="0.89" vaporized=""/>
    <tripinfo id="EGO_vl0" depart="0.00" departLane="4_0" departPos="5.10" departSpeed="0.00" departDelay="0.00" arrival="21.00" arrivalLane="2_0" arrivalPos="92.80" arrivalSpeed="10.00" duration="21.00" routeLength="194.70" waitingTime="1.00" waitingCount="1" stopTime="0.00" timeLoss="0.64" rerouteNo="0" devices="tripinfo_EGO_vl0" vType="car" speedFactor="1.06" vaporized=""/>
    <tripinfo id="EGO_vl2" depart="1.00" departLane="4_0" departPos="5.10" departSpeed="0.00" departDelay="1.00" arrival="23.00" arrivalLane="1_0" arrivalPos="92.80" arrivalSpeed="10.00" duration="22.00" routeLength="189.53" waitingTime="1.00" waitingCount="1" stopTime="0.00" timeLoss="2.09" rerouteNo="0" devices="tripinfo_EGO_vl2" vType="car" speedFactor="1.01" vaporized=""/>
    <tripinfo id="EGO_vl3" depart="1.00" departLane="5_0" departPos="5.10" departSpeed="0.00" departDelay="1.00" arrival="23.00" arrivalLane="2_0" arrivalPos="92.80" arrivalSpeed="10.00" duration="22.00" routeLength="194.90" waitingTime="0.00" waitingCount="0" stopTime="0.00" timeLoss="1.73" rerouteNo="0" devices="tripinfo_EGO_vl3" vType="car" speedFactor="1.08" vaporized=""/>
    <tripinfo id="EGO_vl8" depart="1.00" departLane="7_0" departPos="5.10" departSpeed="0.00" departDelay="1.00" arrival="25.00" arrivalLane="2_0" arrivalPos="92.80" arrivalSpeed="10.00" duration="24.00" routeLength="189.53" waitingTime="4.00" waitingCount="1" stopTime="0.00" timeLoss="4.11" rerouteNo="0" devices="tripinfo_EGO_vl8" vType="car" speedFactor="0.94" vaporized=""/>
    <tripinfo id="EGO_vl9" depart="3.00" departLane="4_0" departPos="5.10" departSpeed="0.00" departDelay="3.00" arrival="27.00" arrivalLane="2_0" arrivalPos="92.80" arrivalSpeed="10.00" duration="24.00" routeLength="194.70" waitingTime="2.00" waitingCount="2" stopTime="0.00" timeLoss="3.45" rerouteNo="0" devices="tripinfo_EGO_vl9" vType="car" speedFactor="0.86" vaporized=""/>
    <tripinfo id="EGO_vl5" depart="3.00" departLane="5_0" departPos="5.10" departSpeed="0.00" departDelay="3.00" arrival="28.00" arrivalLane="0_0" arrivalPos="92.80" arrivalSpeed="10.00" duration="25.00" routeLength="194.69" waitingTime="4.00" waitingCount="1" stopTime="0.00" timeLoss="3.98" rerouteNo="0" devices="tripinfo_EGO_vl5" vType="car" speedFactor="0.83" vaporized=""/>
    <tripinfo id="EGO_vl12" depart="7.00" departLane="4_0" departPos="5.10" departSpeed="0.00" departDelay="7.00" arrival="30.00" arrivalLane="1_0" arrivalPos="92.80" arrivalSpeed="10.00" duration="23.00" routeLength="189.53" waitingTime="3.00" waitingCount="2" stopTime="0.00" timeLoss="3.53" rerouteNo="0" devices="tripinfo_EGO_vl12" vType="car" speedFactor="1.05" vaporized=""/>
    <tripinfo id="EGO_vl17" depart="3.00" departLane="7_0" departPos="5.10" departSpeed="0.00" departDelay="3.00" arrival="30.00" arrivalLane="0_0" arrivalPos="92.80" arrivalSpeed="10.00" duration="27.00" routeLength="194.90" waitingTime="5.00" waitingCount="2" stopTime="0.00" timeLoss="6.72" rerouteNo="0" devices="tripinfo_EGO_vl17" vType="car" speedFactor="0.94" vaporized=""/>
    <tripinfo id="EGO_vl11" depart="5.00" departLane="4_0" departPos="5.10" departSpeed="0.00" departDelay="5.00" arrival="31.00" arrivalLane="2_0" arrivalPos="92.80" arrivalSpeed="10.00" duration="26.00" routeLength="194.70" waitingTime="4.00" waitingCount="3" stopTime="0.00" timeLoss="5.92" rerouteNo="0" devices="tripinfo_EGO_vl11" vType="car" speedFactor="1.03" vaporized=""/>
    <tripinfo id="EGO_vl22" depart="14.00" departLane="4_0" departPos="5.10" departSpeed="0.00" departDelay="14.00" arrival="30.00" arrivalLane="3_0" arrivalPos="92.80" arrivalSpeed="10.00" duration="16.00" routeLength="194.90" waitingTime="3.00" waitingCount="2" stopTime="0.00" timeLoss="4.99" rerouteNo="0" devices="tripinfo_EGO_vl22" vType="car" speedFactor="0.98" vaporized="teleport"/>
    <tripinfo id="EGO_vl32" depart="10.00" departLane="5_0" departPos="5.10" departSpeed="0.00" departDelay="10.00" arrival="30.00" arrivalLane="3_0" arrivalPos="92.80" arrivalSpeed="10.00" duration="20.00" routeLength="189.53" waitingTime="8.00" waitingCount="2" stopTime="0.00" timeLoss="9.46" rerouteNo="0" devices="tripinfo_EGO_vl32" vType="car" speedFactor="1.01" vaporized="teleport"/>
    <tripinfo id="EGO_vl6" depart="5.00" departLane="5_0" departPos="5.10" departSpeed="0.00" departDelay="5.00" arrival="32.00" arrivalLane="3_0" arrivalPos="92.80" arrivalSpeed="10.00" duration="27.00" routeLength="189.53" waitingTime="6.00" waitingCount="2" stopTime="0.00" timeLoss="7.24" rerouteNo="0" devices="tripinfo_EGO_vl6" vType="car" speedFactor="1.05" vaporized=""/>
    <tripinfo id="EGO_vl13" depart="8.00" departLane="4_0" departPos="5.10" departSpeed="0.00" departDelay="8.00" arrival="33.00" arrivalLane="2_0" arrivalPos="92.80" arrivalSpeed="10.00" duration="25.00" routeLength="194.70" waitingTime="3.00" waitingCount="2" stopTime="0.00" timeLoss="4.85" rerouteNo="0" devices="tripinfo_EGO_vl13" vType="car" speedFactor="1.12" vaporized=""/>
    <tripinfo id="EGO_vl14" depart="10.00" departLane="4_0" departPos="5.10" departSpeed="0.00" departDelay="10.00" arrival="35.00" arrivalLane="3_0" arrivalPos="92.80" arrivalSpeed="10.00" duration="25.00" routeLength="194.90" waitingTime="3.00" waitingCount="2" stopTime="0.00" timeLoss="4.60" rerouteNo="0" devices="tripinfo_EGO_vl14" vType="car" speedFactor="0.99" vaporized=""/>
    <tripinfo id="EGO_vl19" depart="5.00" departLane="7_0" departPos="5.10" departSpeed="0.00" departDelay="5.00" arrival="36.00" arrivalLane="1_0" arrivalPos="92.80" arrivalSpeed="10.00" duration="31.00" routeLength="194.70" waitingTime="10.00" waitingCount="2" stopTime="0.00" timeLoss="10.59" rerouteNo="0" devices="tripinfo_EGO_vl19" vType="car" speedFactor="1.16" vaporized=""/>
    <tripinfo id="EGO_vl21" depart="7.00" departLane="5_0" departPos="5.10" departSpeed="0.00" departDelay="7.00" arrival="36.00" arrivalLane="2_0" arrivalPos="92.80" arrivalSpeed="10.00" duration="29.00" routeLength="194.90" waitingTime="8.00" waitingCount="2" stopTime="0.00" timeLoss="8.99" rerouteNo="0" devices="tripinfo_EGO_vl21" vType="car" speedFactor="1.01" vaporized=""/>
    <tripinfo id="EGO_vl20" depart="12.00" departLane="4_0" departPos="5.10" departSpeed="0.00" departDelay="12.00" arrival="38.00" arrivalLane="1_0" arrivalPos="92.80" arrivalSpeed="10.00" duration="26.00" routeLength="189.53" waitingTime="3.00" waitingCount="2" stopTime="0.00" timeLoss="6.12" rerouteNo="0" devices="tripinfo_EGO_vl20" vType="car" speedFactor="1.02" vaporized=""/>
    <tripinfo id="EGO_vl26" depart="8.00" departLane="5_0" departPos="5.10" departSpeed="0.00" departDelay="8.00" arrival="38.00" arrivalLane="3_0" arrivalPos="92.80" arrivalSpeed="10.00" duration="30.00" routeLength="189.53" waitingTime="8.00" waitingCount="2" stopTime="0.00" timeLoss="10.64" rerouteNo="0" devices="tripinfo_EGO_vl26" vType="car" speedFactor="0.92" vaporized=""/>
    <tripinfo id="EGO_vl24" depart="7.00" departLane="7_0" departPos="5.10" departSpeed="0.00" departDelay="7.00" arrival="39.00" arrivalLane="2_0" arrivalPos="92.80" arrivalSpeed="10.00" duration="32.00" routeLength="189.53" waitingTime="10.00" waitingCount="2" stopTime="0.00" timeLoss="11.74" rerouteNo="0" devices="tripinfo_EGO_vl24" vType="car" speedFactor="0.83" vaporized=""/>
    <tripinfo id="EGO_vl37" depart="8.00" departLane="7_0" departPos="5.10" departSpeed="0.00" departDelay="8.00" arrival="39.00" arrivalLane="2_0" arrivalPos="92.80" arrivalSpeed="10.00" duration="31.00" routeLength="189.53" waitingTime="10.00" waitingCount="2" stopTime="0.00" timeLoss="11.73" rerouteNo="0" devices="tripinfo_EGO_vl37" vType="car" speedFactor="1.18" vaporized=""/>
    <tripinfo id="EGO_vl23" depart="15.00" departLane="4_0" departPos="5.10" departSpeed="0.00" departDelay="15.00" arrival="41.00" arrivalLane="3_0" arrivalPos="92.80" arrivalSpeed="10.00" duration="26.00" routeLength="194.90" waitingTime="3.00" waitingCount="2" stopTime="0.00" timeLoss="6.20" rerouteNo="0" devices="tripinfo_EGO_vl23" vType="car" speedFactor="0.89" vaporized=""/>
    <tripinfo id="EGO_vl40" depart="10.00" departLane="7_0" departPos="5.10" departSpeed="0.00" departDelay="10.00" arrival="42.00" arrivalLane="1_0" arrivalPos="92.80" arrivalSpeed="10.00" duration="32.00" routeLength="184.57" waitingTime="13.00" waitingCount="3" stopTime="0.00" timeLoss="15.63" rerouteNo="0" devices="tripinfo_EGO_vl40" vType="car" speedFactor="1.03" vaporized=""/>
    <tripinfo id="EGO_vl27" depart="17.00" departLane="4_0" departPos="5.10" departSpeed="0.00" departDelay="17.00" arrival="43.00" arrivalLane="1_0" arrivalPos="92.80" arrivalSpeed="10.00" duration="26.00" routeLength="189.53" waitingTime="3.00" waitingCount="2" stopTime="0.00" timeLoss="6.61" rerouteNo="0" devices="tripinfo_EGO_vl27" vType="car" speedFactor="0.95" vaporized=""/>
    <tripinfo id="EGO_vl36" depart="12.00" departLane="5_0" departPos="5.10" departSpeed="0.00" departDelay="12.00" arrival="43.00" arrivalLane="3_0" arrivalPos="92.80" arrivalSpeed="10.00" duration="31.00" routeLength="189.53" waitingTime="9.00" waitingCount="3" stopTime="0.00" timeLoss="11.61" rerouteNo="0" devices="tripinfo_EGO_vl36" vType="car" speedFactor="0.97" vaporized=""/>
    <tripinfo id="EGO_vl41" depart="14.00" departLane="5_0" departPos="5.10" departSpeed="0.00" departDelay="14.00" arrival="44.00" arrivalLane="3_0" arrivalPos="92.80" arrivalSpeed="10.00" duration="30.00" routeLength="189.53" waitingTime="9.00" waitingCount="3" stopTime="0.00" timeLoss="10.39" rerouteNo="0" devices="tripinfo_EGO_vl41" vType="car" speedFactor="0.96" vaporized=""/>
    <tripinfo id="EGO_vl28" depart="20.00" departLane="4_0" departPos="5.10" departSpeed="0.00" departDelay="20.00" arrival="46.00" arrivalLane="3_0" arrivalPos="92.80" arrivalSpeed="10.00" duration="26.00" routeLength="194.90" waitingTime="2.00" waitingCount="1" stopTime="0.00" timeLoss="6.20" rerouteNo="0" devices="tripinfo_EGO_vl28" vType="car" speedFactor="1.13" vaporized=""/>
    <tripinfo id="EGO_vl43" depart="12.00" departLane="7_0" departPos="5.10" departSpeed="0.00" departDelay="12.00" arrival="46.00" arrivalLane="1_0" arrivalPos="92.80" arrivalSpeed="10.00" duration="34.00" routeLength="194.70" waitingTime="11.00" waitingCount="3" stopTime="0.00" timeLoss="13.38" rerouteNo="0" devices="tripinfo_EGO_vl43" vType="car" speedFactor="1.04" vaporized=""/>
    <tripinfo id="EGO_vl30" depart="22.00" departLane="4_0" departPos="5.10" departSpeed="0.00" departDelay="22.00" arrival="47.00" arrivalLane="1_0" arrivalPos="92.80" arrivalSpeed="10.00" duration="25.00" routeLength="189.53" waitingTime="2.00" waitingCount="1" stopTime="0.00" timeLoss="5.65" rerouteNo="0" devices="tripinfo_EGO_vl30" vType="car" speedFactor="1.18" vaporized=""/>
    <tripinfo id="EGO_vl49" depart="14.00" departLane="7_0" departPos="5.10" departSpeed="0.00" departDelay="14.00" arrival="47.00" arrivalLane="0_0" arrivalPos="92.80" arrivalSpeed="10.00" duration="33.00" routeLength="194.90" waitingTime="11.00" waitingCount="3" stopTime="0.00" timeLoss="13.33" rerouteNo="0" devices="tripinfo_EGO_vl49" vType="car" speedFactor="0.85" vaporized=""/>
    <tripinfo id="EGO_vl46" depart="15.00" departLane="5_0" departPos="5.10" departSpeed="0.00" departDelay="15.00" arrival="48.00" arrivalLane="3_0" arrivalPos="92.80" arrivalSpeed="10.00" duration="33.00" routeLength="189.53" waitingTime="10.00" waitingCount="4" stopTime="0.00" timeLoss="13.59" rerouteNo="0" devices="tripinfo_EGO_vl46" vType="car" speedFactor="1.00" vaporized=""/>
    <tripinfo id="EGO_vl33" depart="24.00" departLane="4_0" departPos="5.10" departSpeed="0.00" departDelay="24.00" arrival="50.00" arrivalLane="1_0" arrivalPos="92.80" arrivalSpeed="10.00" duration="26.00" routeLength="189.53" waitingTime="2.00" waitingCount="1" stopTime="0.00" timeLoss="5.94" rerouteNo="0" devices="tripinfo_EGO_vl33" vType="car" speedFactor="1.17" vaporized=""/>
    <tripinfo id="EGO_vl47" depart="17.00" departLane="5_0" departPos="5.10" departSpeed="0.00" departDelay="17.00" arrival="50.00" arrivalLane="2_0" arrivalPos="92.80" arrivalSpeed="10.00" duration="33.00" routeLength="194.90" waitingTime="10.00" waitingCount="4" stopTime="0.00" timeLoss="12.99" rerouteNo="0" devices="tripinfo_EGO_vl47" vType="car" speedFactor="0.90" vaporized=""/>
    <tripinfo id="EGO_vl39" depart="26.00" departLane="4_0" departPos="5.10" departSpeed="0.00" departDelay="26.00" arrival="52.00" arrivalLane="3_0" arrivalPos="92.80" arrivalSpeed="10.00" duration="26.00" routeLength="194.90" waitingTime="2.00" waitingCount="1" stopTime="0.00" timeLoss="5.93" rerouteNo="0" devices="tripinfo_EGO_vl39" vType="car" speedFactor="0.90" vaporized=""/>
    <tripinfo id="EGO_vl44" depart="30.00" departLane="4_0" departPos="5.10" departSpeed="0.00" departDelay="30.00" arrival="54.00" arrivalLane="3_0" arrivalPos="92.80" arrivalSpeed="10.00" duration="24.00" routeLength="194.90" waitingTime="0.00" waitingCount="0" stopTime="0.00" timeLoss="3.68" rerouteNo="0" devices="tripinfo_EGO_vl44" vType="car" speedFactor="1.04" vaporized=""/>
    <tripinfo id="EGO_vl48" depart="19.00" departLane="5_0" departPos="5.10" departSpeed="0.00" departDelay="19.00" arrival="55.00" arrivalLane="2_0" arrivalPos="92.80" arrivalSpeed="10.00" duration="36.00" routeLength="194.90" waitingTime="12.00" waitingCount="5" stopTime="0.00" timeLoss="16.08" rerouteNo="0" devices="tripinfo_EGO_vl48" vType="car" speedFactor="0.88" vaporized=""/>
    <tripinfo id="EGO_vl10" depart="1.00" departLane="6_0" departPos="5.10" departSpeed="0.00" departDelay="1.00" arrival="65.00" arrivalLane="3_0" arrivalPos="92.80" arrivalSpeed="10.00" duration="64.00" routeLength="194.69" waitingTime="43.00" waitingCount="2" stopTime="0.00" timeLoss="44.09" rerouteNo="0" devices="tripinfo_EGO_vl10" vType="car" speedFactor="1.09" vaporized=""/>
    <tripinfo id="EGO_vl15" depart="3.00" departLane="6_0" departPos="5.10" departSpeed="0.00" departDelay="3.00" arrival="67.00" arrivalLane="1_0" arrivalPos="92.80" arrivalSpeed="10.00" duration="64.00" routeLength="194.90" waitingTime="43.00" waitingCount="2" stopTime="0.00" timeLoss="43.99" rerouteNo="0" devices="tripinfo_EGO_vl15" vType="car" speedFactor="0.93" vaporized=""/>
    <tripinfo id="EGO_vl16" depart="5.00" departLane="6_0" departPos="5.10" departSpeed="0.00" departDelay="5.00" arrival="70.00" arrivalLane="3_0" arrivalPos="92.80" arrivalSpeed="10.00" duration="65.00" routeLength="194.69" waitingTime="43.00" waitingCount="2" stopTime="0.00" timeLoss="44.54" rerouteNo="0" devices="tripinfo_EGO_vl16" vType="car" speedFactor="0.88" vaporized=""/>
    <tripinfo id="EGO_vl18" depart="7.00" departLane="6_0" departPos="5.10" departSpeed="0.00" departDelay="7.00" arrival="71.00" arrivalLane="3_0" arrivalPos="92.80" arrivalSpeed="10.00" duration="64.00" routeLength="194.69" waitingTime="43.00" waitingCount="2" stopTime="0.00" timeLoss="43.32" rerouteNo="0" devices="tripinfo_EGO_vl18" vType="car" speedFactor="0.94" vaporized=""/>
    <tripinfo id="EGO_vl25" depart="8.00" departLane="6_0" departPos="5.10" departSpeed="0.00" departDelay="8.00" arrival="72.00" arrivalLane="0_0" arrivalPos="92.80" arrivalSpeed="10.00" duration="64.00" routeLength="189.53" waitingTime="43.00" waitingCount="2" stopTime="0.00" timeLoss="43.98" rerouteNo="0" devices="tripinfo_EGO_vl25" vType="car" speedFactor="0.87" vaporized=""/>
    <tripinfo id="EGO_vl29" depart="10.00" departLane="6_0" departPos="5.10" departSpeed="0.00" departDelay="10.00" arrival="74.00" arrivalLane="1_0" arrivalPos="92.80" arrivalSpeed="10.00" duration="64.00" routeLength="194.90" waitingTime="43.00" waitingCount="2" stopTime="0.00" timeLoss="44.49" rerouteNo="0" devices="tripinfo_EGO_vl29" vType="car" speedFactor="0.93" vaporized=""/>
    <tripinfo id="EGO_vl31" depart="12.00" departLane="6_0" departPos="5.10" departSpeed="0.00" departDelay="12.00" arrival="76.00" arrivalLane="1_0" arrivalPos="92.80" arrivalSpeed="10.00" duration="64.00" routeLength="194.90" waitingTime="43.00" waitingCount="2" stopTime="0.00" timeLoss="44.24" rerouteNo="0" devices="tripinfo_EGO_vl31" vType="car" speedFactor="1.15" vaporized=""/>
    <tripinfo id="EGO_vl34" depart="14.00" departLane="6_0" departPos="5.10" departSpeed="0.00" departDelay="14.00" arrival="78.00" arrivalLane="1_0" arrivalPos="92.80" arrivalSpeed="10.00" duration="64.00" routeLength="194.90" waitingTime="43.00" waitingCount="2" stopTime="0.00" timeLoss="44.24" rerouteNo="0" devices="tripinfo_EGO_vl34" vType="car" speedFactor="0.99" vaporized=""/>
    <tripinfo id="EGO_vl35" depart="15.00" departLane="6_0" departPos="5.10" departSpeed="0.00" departDelay="15.00" arrival="80.00" arrivalLane="0_0" arrivalPos="92.80" arrivalSpeed="10.00" duration="65.00" routeLength="189.53" waitingTime="43.00" waitingCount="2" stopTime="0.00" timeLoss="45.58" rerouteNo="0" devices="tripinfo_EGO_vl35" vType="car" speedFactor="1.02" vaporized=""/>
    <tripinfo id="EGO_vl38" depart="17.00" departLane="6_0" departPos="5.10" departSpeed="0.00" departDelay="17.00" arrival="82.00" arrivalLane="3_0" arrivalPos="92.80" arrivalSpeed="10.00" duration="65.00" routeLength="194.69" waitingTime="43.00" waitingCount="2" stopTime="0.00" timeLoss="45.11" rerouteNo="0" devices="tripinfo_EGO_vl38" vType="car" speedFactor="1.10" vaporized=""/>
    <tripinfo id="EGO_vl42" depart="20.00" departLane="6_0" departPos="5.10" departSpeed="0.00" departDelay="20.00" arrival="84.00" arrivalLane="3_0" arrivalPos="92.80" arrivalSpeed="10.00" duration="64.00" routeLength="194.69" waitingTime="42.00" waitingCount="1" stopTime="0.00" timeLoss="44.37" rerouteNo="0" devices="tripinfo_EGO_vl42" vType="car" speedFactor="1.09" vaporized=""/>
    <tripinfo id="EGO_vl45" depart="22.00" departLane="6_0" departPos="5.10" departSpeed="0.00" departDelay="22.00" arrival="86.00" arrivalLane="0_0" arrivalPos="92.80" arrivalSpeed="10.00" duration="64.00" routeLength="189.53" waitingTime="42.00" waitingCount="1" stopTime="0.00" timeLoss="44.53" rerouteNo="0" devices="tripinfo_EGO_vl45" vType="car" speedFactor="1.09" vaporized=""/>
</tripinfos>
