<?xml version="1.0" encoding="UTF-8"?>

<!-- generated on 2022-04-26 14:08:38 by Eclipse SUMO sumo Version 1.12.0
<configuration xmlns:xsi="http://www.w3.org/2001/XMLSchema-instance" xsi:noNamespaceSchemaLocation="http://sumo.dlr.de/xsd/sumoConfiguration.xsd">

    <input>
        <net-file value="network/net.net.xml"/>
        <route-files value="network/grid.rou.xml"/>
    </input>

    <output>
        <tripinfo-output value="temp/Out.xml"/>
    </output>

    <report>
        <no-warnings value="true"/>
    </report>

    <traci_server>
        <remote-port value="49600"/>
    </traci_server>

</configuration>
-->

<tripinfos xmlns:xsi="http://www.w3.org/2001/XMLSchema-instance" xsi:noNamespaceSchemaLocation="http://sumo.dlr.de/xsd/tripinfo_file.xsd">
    <tripinfo id="EGO_vl3" depart="0.00" departLane="4_0" departPos="5.10" departSpeed="0.00" departDelay="0.00" arrival="22.00" arrivalLane="2_0" arrivalPos="92.80" arrivalSpeed="10.00" duration="22.00" routeLength="194.70" waitingTime="0.00" waitingCount="0" stopTime="1.00" timeLoss="0.86" rerouteNo="0" devices="tripinfo_EGO_vl3" vType="car" speedFactor="1.08" vaporized=""/>
    <tripinfo id="EGO_vl0" depart="0.00" departLane="5_0" departPos="5.10" departSpeed="0.00" departDelay="0.00" arrival="23.00" arrivalLane="3_0" arrivalPos="92.80" arrivalSpeed="10.00" duration="23.00" routeLength="189.53" waitingTime="0.00" waitingCount="0" stopTime="2.00" timeLoss="0.82" rerouteNo="0" devices="tripinfo_EGO_vl0" vType="car" speedFactor="1.06" vaporized=""/>
    <tripinfo id="EGO_vl1" depart="0.00" departLane="7_0" departPos="5.10" departSpeed="0.00" departDelay="0.00" arrival="24.00" arrivalLane="1_0" arrivalPos="92.80" arrivalSpeed="10.00" duration="24.00" routeLength="194.70" waitingTime="0.00" waitingCount="0" stopTime="3.00" timeLoss="0.86" rerouteNo="0" devices="tripinfo_EGO_vl1" vType="car" speedFactor="0.94" vaporized=""/>
    <tripinfo id="EGO_vl5" depart="0.00" departLane="6_0" departPos="5.10" departSpeed="0.00" departDelay="0.00" arrival="26.00" arrivalLane="1_0" arrivalPos="92.80" arrivalSpeed="10.00" duration="26.00" routeLength="194.90" waitingTime="0.00" waitingCount="0" stopTime="4.00" timeLoss="2.06" rerouteNo="0" devices="tripinfo_EGO_vl5" vType="car" speedFactor="0.83" vaporized=""/>
    <tripinfo id="EGO_vl2" depart="1.00" departLane="5_0" departPos="5.10" departSpeed="0.00" departDelay="1.00" arrival="27.00" arrivalLane="3_0" arrivalPos="92.80" arrivalSpeed="10.00" duration="26.00" routeLength="189.53" waitingTime="2.00" waitingCount="1" stopTime="1.00" timeLoss="4.85" rerouteNo="0" devices="tripinfo_EGO_vl2" vType="car" speedFactor="1.01" vaporized=""/>
    <tripinfo id="EGO_vl4" depart="1.00" departLane="4_0" departPos="5.10" departSpeed="0.00" departDelay="1.00" arrival="28.00" arrivalLane="1_0" arrivalPos="92.80" arrivalSpeed="10.00" duration="27.00" routeLength="189.53" waitingTime="2.00" waitingCount="2" stopTime="1.00" timeLoss="6.57" rerouteNo="0" devices="tripinfo_EGO_vl4" vType="car" speedFactor="1.03" vaporized=""/>
    <tripinfo id="EGO_vl9" depart="1.00" departLane="7_0" departPos="5.10" departSpeed="0.00" departDelay="1.00" arrival="28.00" arrivalLane="0_0" arrivalPos="92.80" arrivalSpeed="10.00" duration="27.00" routeLength="194.90" waitingTime="3.00" waitingCount="1" stopTime="1.00" timeLoss="5.76" rerouteNo="0" devices="tripinfo_EGO_vl9" vType="car" speedFactor="0.86" vaporized=""/>
    <tripinfo id="EGO_vl8" depart="1.00" departLane="6_0" departPos="5.10" departSpeed="0.00" departDelay="1.00" arrival="30.00" arrivalLane="3_0" arrivalPos="92.80" arrivalSpeed="10.00" duration="29.00" routeLength="194.69" waitingTime="4.00" waitingCount="1" stopTime="1.00" timeLoss="7.76" rerouteNo="0" devices="tripinfo_EGO_vl8" vType="car" speedFactor="0.94" vaporized=""/>
    <tripinfo id="EGO_vl10" depart="3.00" departLane="7_0" departPos="5.10" departSpeed="0.00" departDelay="3.00" arrival="32.00" arrivalLane="1_0" arrivalPos="92.80" arrivalSpeed="10.00" duration="29.00" routeLength="194.70" waitingTime="4.00" waitingCount="2" stopTime="2.00" timeLoss="6.86" rerouteNo="0" devices="tripinfo_EGO_vl10" vType="car" speedFactor="1.09" vaporized=""/>
    <tripinfo id="EGO_vl6" depart="3.00" departLane="4_0" departPos="5.10" departSpeed="0.00" departDelay="3.00" arrival="33.00" arrivalLane="2_0" arrivalPos="92.80" arrivalSpeed="10.00" duration="30.00" routeLength="194.70" waitingTime="3.00" waitingCount="3" stopTime="2.00" timeLoss="7.86" rerouteNo="0" devices="tripinfo_EGO_vl6" vType="car" speedFactor="1.05" vaporized=""/>
    <tripinfo id="EGO_vl7" depart="3.00" departLane="5_0" departPos="5.10" departSpeed="0.00" departDelay="3.00" arrival="33.00" arrivalLane="3_0" arrivalPos="92.80" arrivalSpeed="10.00" duration="30.00" routeLength="189.53" waitingTime="4.00" waitingCount="3" stopTime="1.00" timeLoss="8.66" rerouteNo="0" devices="tripinfo_EGO_vl7" vType="car" speedFactor="0.89" vaporized=""/>
    <tripinfo id="EGO_vl11" depart="3.00" departLane="6_0" departPos="5.10" departSpeed="0.00" departDelay="3.00" arrival="35.00" arrivalLane="3_0" arrivalPos="92.80" arrivalSpeed="10.00" duration="32.00" routeLength="194.69" waitingTime="5.00" waitingCount="2" stopTime="2.00" timeLoss="10.18" rerouteNo="0" devices="tripinfo_EGO_vl11" vType="car" speedFactor="1.03" vaporized=""/>
    <tripinfo id="EGO_vl15" depart="5.00" departLane="7_0" departPos="5.10" departSpeed="0.00" departDelay="5.00" arrival="37.00" arrivalLane="0_0" arrivalPos="92.80" arrivalSpeed="10.00" duration="32.00" routeLength="194.90" waitingTime="6.00" waitingCount="3" stopTime="2.00" timeLoss="9.92" rerouteNo="0" devices="tripinfo_EGO_vl15" vType="car" speedFactor="0.93" vaporized=""/>
    <tripinfo id="EGO_vl12" depart="5.00" departLane="5_0" departPos="5.10" departSpeed="0.00" departDelay="5.00" arrival="38.00" arrivalLane="2_0" arrivalPos="92.80" arrivalSpeed="10.00" duration="33.00" routeLength="194.90" waitingTime="5.00" waitingCount="4" stopTime="1.00" timeLoss="11.76" rerouteNo="0" devices="tripinfo_EGO_vl12" vType="car" speedFactor="1.05" vaporized=""/>
    <tripinfo id="EGO_vl20" depart="5.00" departLane="4_0" departPos="5.10" departSpeed="0.00" departDelay="5.00" arrival="39.00" arrivalLane="3_0" arrivalPos="92.80" arrivalSpeed="10.00" duration="34.00" routeLength="194.90" waitingTime="5.00" waitingCount="4" stopTime="2.00" timeLoss="11.97" rerouteNo="0" devices="tripinfo_EGO_vl20" vType="car" speedFactor="1.02" vaporized=""/>
    <tripinfo id="EGO_vl18" depart="5.00" departLane="6_0" departPos="5.10" departSpeed="0.00" departDelay="5.00" arrival="40.00" arrivalLane="1_0" arrivalPos="92.80" arrivalSpeed="10.00" duration="35.00" routeLength="194.90" waitingTime="7.00" waitingCount="3" stopTime="1.00" timeLoss="13.97" rerouteNo="0" devices="tripinfo_EGO_vl18" vType="car" speedFactor="0.94" vaporized=""/>
    <tripinfo id="EGO_vl13" depart="7.00" departLane="5_0" departPos="5.10" departSpeed="0.00" departDelay="7.00" arrival="41.00" arrivalLane="2_0" arrivalPos="92.80" arrivalSpeed="10.00" duration="34.00" routeLength="194.90" waitingTime="6.00" waitingCount="5" stopTime="1.00" timeLoss="13.08" rerouteNo="0" devices="tripinfo_EGO_vl13" vType="car" speedFactor="1.12" vaporized=""/>
    <tripinfo id="EGO_vl21" depart="7.00" departLane="4_0" departPos="5.10" departSpeed="0.00" departDelay="7.00" arrival="43.00" arrivalLane="3_0" arrivalPos="92.80" arrivalSpeed="10.00" duration="36.00" routeLength="194.90" waitingTime="7.00" waitingCount="5" stopTime="1.00" timeLoss="14.76" rerouteNo="0" devices="tripinfo_EGO_vl21" vType="car" speedFactor="1.01" vaporized=""/>
    <tripinfo id="EGO_vl22" depart="7.00" departLane="7_0" departPos="5.10" departSpeed="0.00" departDelay="7.00" arrival="43.00" arrivalLane="2_0" arrivalPos="92.80" arrivalSpeed="10.00" duration="36.00" routeLength="189.53" waitingTime="9.00" waitingCount="5" stopTime="2.00" timeLoss="14.61" rerouteNo="0" devices="tripinfo_EGO_vl22" vType="car" speedFactor="0.98" vaporized=""/>
    <tripinfo id="EGO_vl19" depart="7.00" departLane="6_0" departPos="5.10" departSpeed="0.00" departDelay="7.00" arrival="45.00" arrivalLane="3_0" arrivalPos="92.80" arrivalSpeed="10.00" duration="38.00" routeLength="194.69" waitingTime="8.00" waitingCount="4" stopTime="1.00" timeLoss="16.55" rerouteNo="0" devices="tripinfo_EGO_vl19" vType="car" speedFactor="1.16" vaporized=""/>
    <tripinfo id="EGO_vl14" depart="8.00" departLane="5_0" departPos="5.10" departSpeed="0.00" departDelay="8.00" arrival="47.00" arrivalLane="3_0" arrivalPos="92.80" arrivalSpeed="10.00" duration="39.00" routeLength="189.53" waitingTime="8.00" waitingCount="7" stopTime="1.00" timeLoss="17.87" rerouteNo="0" devices="tripinfo_EGO_vl14" vType="car" speedFactor="0.99" vaporized=""/>
    <tripinfo id="EGO_vl23" depart="8.00" departLane="7_0" departPos="5.10" departSpeed="0.00" departDelay="8.00" arrival="47.00" arrivalLane="2_0" arrivalPos="92.80" arrivalSpeed="10.00" duration="39.00" routeLength="189.53" waitingTime="11.00" waitingCount="6" stopTime="1.00" timeLoss="17.93" rerouteNo="0" devices="tripinfo_EGO_vl23" vType="car" speedFactor="0.89" vaporized=""/>
    <tripinfo id="EGO_vl26" depart="8.00" departLane="6_0" departPos="5.10" departSpeed="0.00" departDelay="8.00" arrival="48.00" arrivalLane="0_0" arrivalPos="92.80" arrivalSpeed="10.00" duration="40.00" routeLength="189.53" waitingTime="9.00" waitingCount="5" stopTime="1.00" timeLoss="18.91" rerouteNo="0" devices="tripinfo_EGO_vl26" vType="car" speedFactor="0.92" vaporized=""/>
    <tripinfo id="EGO_vl33" depart="8.00" departLane="4_0" departPos="5.10" departSpeed="0.00" departDelay="8.00" arrival="48.00" arrivalLane="3_0" arrivalPos="92.80" arrivalSpeed="10.00" duration="40.00" routeLength="194.90" waitingTime="9.00" waitingCount="7" stopTime="1.00" timeLoss="19.44" rerouteNo="0" devices="tripinfo_EGO_vl33" vType="car" speedFactor="1.17" vaporized=""/>
    <tripinfo id="EGO_vl16" depart="10.00" departLane="5_0" departPos="5.10" departSpeed="0.00" departDelay="10.00" arrival="51.00" arrivalLane="3_0" arrivalPos="92.80" arrivalSpeed="10.00" duration="41.00" routeLength="189.53" waitingTime="9.00" waitingCount="8" stopTime="1.00" timeLoss="19.94" rerouteNo="0" devices="tripinfo_EGO_vl16" vType="car" speedFactor="0.88" vaporized=""/>
    <tripinfo id="EGO_vl24" depart="10.00" departLane="7_0" departPos="5.10" departSpeed="0.00" departDelay="10.00" arrival="52.00" arrivalLane="2_0" arrivalPos="92.80" arrivalSpeed="10.00" duration="42.00" routeLength="189.53" waitingTime="12.00" waitingCount="7" stopTime="2.00" timeLoss="19.97" rerouteNo="0" devices="tripinfo_EGO_vl24" vType="car" speedFactor="0.83" vaporized=""/>
    <tripinfo id="EGO_vl40" depart="10.00" departLane="4_0" departPos="5.10" departSpeed="0.00" departDelay="10.00" arrival="53.00" arrivalLane="1_0" arrivalPos="92.80" arrivalSpeed="10.00" duration="43.00" routeLength="189.53" waitingTime="10.00" waitingCount="8" stopTime="2.00" timeLoss="20.84" rerouteNo="0" devices="tripinfo_EGO_vl40" vType="car" speedFactor="1.03" vaporized=""/>
    <tripinfo id="EGO_vl27" depart="10.00" departLane="6_0" departPos="5.10" departSpeed="0.00" departDelay="10.00" arrival="54.00" arrivalLane="0_0" arrivalPos="92.80" arrivalSpeed="10.00" duration="44.00" routeLength="189.53" waitingTime="10.00" waitingCount="6" stopTime="3.00" timeLoss="20.89" rerouteNo="0" devices="tripinfo_EGO_vl27" vType="car" speedFactor="0.95" vaporized=""/>
    <tripinfo id="EGO_vl17" depart="12.00" departLane="5_0" departPos="5.10" departSpeed="0.00" departDelay="12.00" arrival="55.00" arrivalLane="3_0" arrivalPos="92.80" arrivalSpeed="10.00" duration="43.00" routeLength="189.53" waitingTime="10.00" waitingCount="9" stopTime="1.00" timeLoss="21.90" rerouteNo="0" devices="tripinfo_EGO_vl17" vType="car" speedFactor="0.94" vaporized=""/>
    <tripinfo id="EGO_vl28" depart="12.00" departLane="7_0" departPos="5.10" departSpeed="0.00" departDelay="12.00" arrival="55.00" arrivalLane="0_0" arrivalPos="92.80" arrivalSpeed="10.00" duration="43.00" routeLength="194.90" waitingTime="14.00" waitingCount="8" stopTime="1.00" timeLoss="22.51" rerouteNo="0" devices="tripinfo_EGO_vl28" vType="car" speedFactor="1.13" vaporized=""/>
    <tripinfo id="EGO_vl43" depart="12.00" departLane="4_0" departPos="5.10" departSpeed="0.00" departDelay="12.00" arrival="57.00" arrivalLane="2_0" arrivalPos="92.80" arrivalSpeed="10.00" duration="45.00" routeLength="194.70" waitingTime="12.00" waitingCount="9" stopTime="1.00" timeLoss="23.86" rerouteNo="0" devices="tripinfo_EGO_vl43" vType="car" speedFactor="1.04" vaporized=""/>
    <tripinfo id="EGO_vl36" depart="12.00" departLane="6_0" departPos="5.10" departSpeed="0.00" departDelay="12.00" arrival="59.00" arrivalLane="3_0" arrivalPos="92.80" arrivalSpeed="10.00" duration="47.00" routeLength="194.69" waitingTime="13.00" waitingCount="7" stopTime="1.00" timeLoss="26.21" rerouteNo="0" devices="tripinfo_EGO_vl36" vType="car" speedFactor="0.97" vaporized=""/>
    <tripinfo id="EGO_vl25" depart="14.00" departLane="5_0" departPos="5.10" departSpeed="0.00" departDelay="14.00" arrival="60.00" arrivalLane="0_0" arrivalPos="92.80" arrivalSpeed="10.00" duration="46.00" routeLength="194.69" waitingTime="11.00" waitingCount="10" stopTime="1.00" timeLoss="24.54" rerouteNo="0" devices="tripinfo_EGO_vl25" vType="car" speedFactor="0.87" vaporized=""/>
    <tripinfo id="EGO_vl34" depart="14.00" departLane="7_0" departPos="5.10" departSpeed="0.00" departDelay="14.00" arrival="60.00" arrivalLane="2_0" arrivalPos="92.80" arrivalSpeed="10.00" duration="46.00" routeLength="189.53" waitingTime="15.00" waitingCount="9" stopTime="2.00" timeLoss="23.86" rerouteNo="0" devices="tripinfo_EGO_vl34" vType="car" speedFactor="0.99" vaporized=""/>
    <tripinfo id="EGO_vl56" depart="14.00" departLane="4_0" departPos="5.10" departSpeed="0.00" departDelay="14.00" arrival="62.00" arrivalLane="2_0" arrivalPos="92.80" arrivalSpeed="10.00" duration="48.00" routeLength="194.70" waitingTime="14.00" waitingCount="11" stopTime="1.00" timeLoss="26.85" rerouteNo="0" devices="tripinfo_EGO_vl56" vType="car" speedFactor="0.90" vaporized=""/>
    <tripinfo id="EGO_vl29" depart="15.00" departLane="5_0" departPos="5.10" departSpeed="0.00" departDelay="15.00" arrival="63.00" arrivalLane="3_0" arrivalPos="92.80" arrivalSpeed="10.00" duration="48.00" routeLength="189.53" waitingTime="12.00" waitingCount="11" stopTime="1.00" timeLoss="26.90" rerouteNo="0" devices="tripinfo_EGO_vl29" vType="car" speedFactor="0.93" vaporized=""/>
    <tripinfo id="EGO_vl37" depart="14.00" departLane="6_0" departPos="5.10" departSpeed="0.00" departDelay="14.00" arrival="63.00" arrivalLane="0_0" arrivalPos="92.80" arrivalSpeed="10.00" duration="49.00" routeLength="189.53" waitingTime="14.00" waitingCount="8" stopTime="2.00" timeLoss="27.74" rerouteNo="0" devices="tripinfo_EGO_vl37" vType="car" speedFactor="1.18" vaporized=""/>
    <tripinfo id="EGO_vl35" depart="15.00" departLane="7_0" departPos="5.10" departSpeed="0.00" departDelay="15.00" arrival="65.00" arrivalLane="2_0" arrivalPos="92.80" arrivalSpeed="10.00" duration="50.00" routeLength="189.53" waitingTime="17.00" waitingCount="10" stopTime="2.00" timeLoss="27.85" rerouteNo="0" devices="tripinfo_EGO_vl35" vType="car" speedFactor="1.02" vaporized=""/>
    <tripinfo id="EGO_vl30" depart="17.00" departLane="5_0" departPos="5.10" departSpeed="0.00" departDelay="17.00" arrival="66.00" arrivalLane="2_0" arrivalPos="92.80" arrivalSpeed="10.00" duration="49.00" routeLength="194.90" waitingTime="13.00" waitingCount="12" stopTime="1.00" timeLoss="28.51" rerouteNo="0" devices="tripinfo_EGO_vl30" vType="car" speedFactor="1.18" vaporized=""/>
    <tripinfo id="EGO_vl58" depart="15.00" departLane="4_0" departPos="5.10" departSpeed="0.00" departDelay="15.00" arrival="66.00" arrivalLane="1_0" arrivalPos="92.80" arrivalSpeed="10.00" duration="51.00" routeLength="189.53" waitingTime="15.00" waitingCount="12" stopTime="1.00" timeLoss="29.84" rerouteNo="0" devices="tripinfo_EGO_vl58" vType="car" speedFactor="1.02" vaporized=""/>
    <tripinfo id="EGO_vl39" depart="15.00" departLane="6_0" departPos="5.10" departSpeed="0.00" departDelay="15.00" arrival="68.00" arrivalLane="3_0" arrivalPos="92.80" arrivalSpeed="10.00" duration="53.00" routeLength="194.69" waitingTime="16.00" waitingCount="9" stopTime="2.00" timeLoss="30.82" rerouteNo="0" devices="tripinfo_EGO_vl39" vType="car" speedFactor="0.90" vaporized=""/>
    <tripinfo id="EGO_vl31" depart="19.00" departLane="5_0" departPos="5.10" departSpeed="0.00" departDelay="19.00" arrival="70.00" arrivalLane="3_0" arrivalPos="92.80" arrivalSpeed="10.00" duration="51.00" routeLength="189.53" waitingTime="14.00" waitingCount="13" stopTime="2.00" timeLoss="29.76" rerouteNo="0" devices="tripinfo_EGO_vl31" vType="car" speedFactor="1.15" vaporized=""/>
    <tripinfo id="EGO_vl60" depart="17.00" departLane="4_0" departPos="5.10" departSpeed="0.00" departDelay="17.00" arrival="70.00" arrivalLane="1_0" arrivalPos="92.80" arrivalSpeed="10.00" duration="53.00" routeLength="189.53" waitingTime="16.00" waitingCount="13" stopTime="1.00" timeLoss="31.81" rerouteNo="0" devices="tripinfo_EGO_vl60" vType="car" speedFactor="1.08" vaporized=""/>
    <tripinfo id="EGO_vl41" depart="17.00" departLane="7_0" departPos="5.10" departSpeed="0.00" departDelay="17.00" arrival="72.00" arrivalLane="1_0" arrivalPos="92.80" arrivalSpeed="10.00" duration="55.00" routeLength="194.70" waitingTime="21.00" waitingCount="12" stopTime="1.00" timeLoss="33.21" rerouteNo="0" devices="tripinfo_EGO_vl41" vType="car" speedFactor="0.96" vaporized=""/>
    <tripinfo id="EGO_vl42" depart="17.00" departLane="6_0" departPos="5.10" departSpeed="0.00" departDelay="17.00" arrival="72.00" arrivalLane="0_0" arrivalPos="92.80" arrivalSpeed="10.00" duration="55.00" routeLength="189.53" waitingTime="18.00" waitingCount="10" stopTime="1.00" timeLoss="33.80" rerouteNo="0" devices="tripinfo_EGO_vl42" vType="car" speedFactor="1.09" vaporized=""/>
    <tripinfo id="EGO_vl62" depart="19.00" departLane="4_0" departPos="5.10" departSpeed="0.00" departDelay="19.00" arrival="74.00" arrivalLane="2_0" arrivalPos="92.80" arrivalSpeed="10.00" duration="55.00" routeLength="194.70" waitingTime="17.00" waitingCount="14" stopTime="1.00" timeLoss="33.86" rerouteNo="0" devices="tripinfo_EGO_vl62" vType="car" speedFactor="1.02" vaporized=""/>
    <tripinfo id="EGO_vl32" depart="23.00" departLane="5_0" departPos="5.10" departSpeed="0.00" departDelay="23.00" arrival="75.00" arrivalLane="3_0" arrivalPos="92.80" arrivalSpeed="10.00" duration="52.00" routeLength="189.53" waitingTime="14.00" waitingCount="13" stopTime="2.00" timeLoss="29.86" rerouteNo="0" devices="tripinfo_EGO_vl32" vType="car" speedFactor="1.01" vaporized=""/>
    <tripinfo id="EGO_vl45" depart="19.00" departLane="7_0" departPos="5.10" departSpeed="0.00" departDelay="19.00" arrival="76.00" arrivalLane="1_0" arrivalPos="92.80" arrivalSpeed="10.00" duration="57.00" routeLength="194.70" waitingTime="22.00" waitingCount="13" stopTime="2.00" timeLoss="34.86" rerouteNo="0" devices="tripinfo_EGO_vl45" vType="car" speedFactor="1.09" vaporized=""/>
    <tripinfo id="EGO_vl65" depart="22.00" departLane="4_0" departPos="5.10" departSpeed="0.00" departDelay="22.00" arrival="78.00" arrivalLane="3_0" arrivalPos="92.80" arrivalSpeed="10.00" duration="56.00" routeLength="194.90" waitingTime="17.00" waitingCount="14" stopTime="1.00" timeLoss="34.92" rerouteNo="0" devices="tripinfo_EGO_vl65" vType="car" speedFactor="0.88" vaporized=""/>
    <tripinfo id="EGO_vl44" depart="19.00" departLane="6_0" departPos="5.10" departSpeed="0.00" departDelay="19.00" arrival="79.00" arrivalLane="1_0" arrivalPos="92.80" arrivalSpeed="10.00" duration="60.00" routeLength="194.90" waitingTime="20.00" waitingCount="12" stopTime="2.00" timeLoss="37.69" rerouteNo="0" devices="tripinfo_EGO_vl44" vType="car" speedFactor="1.04" vaporized=""/>
    <tripinfo id="EGO_vl38" depart="27.00" departLane="5_0" departPos="5.10" departSpeed="0.00" departDelay="27.00" arrival="80.00" arrivalLane="0_0" arrivalPos="92.80" arrivalSpeed="10.00" duration="53.00" routeLength="194.69" waitingTime="15.00" waitingCount="13" stopTime="1.00" timeLoss="32.14" rerouteNo="0" devices="tripinfo_EGO_vl38" vType="car" speedFactor="1.10" vaporized=""/>
    <tripinfo id="EGO_vl46" depart="24.00" departLane="7_0" departPos="5.10" departSpeed="0.00" departDelay="24.00" arrival="80.00" arrivalLane="2_0" arrivalPos="92.80" arrivalSpeed="10.00" duration="56.00" routeLength="189.53" waitingTime="21.00" waitingCount="13" stopTime="1.00" timeLoss="34.86" rerouteNo="0" devices="tripinfo_EGO_vl46" vType="car" speedFactor="1.00" vaporized=""/>
    <tripinfo id="EGO_vl68" depart="29.00" departLane="4_0" departPos="5.10" departSpeed="0.00" departDelay="29.00" arrival="82.00" arrivalLane="3_0" arrivalPos="92.80" arrivalSpeed="10.00" duration="53.00" routeLength="194.90" waitingTime="16.00" waitingCount="13" stopTime="1.00" timeLoss="31.92" rerouteNo="0" devices="tripinfo_EGO_vl68" vType="car" speedFactor="1.04" vaporized=""/>
    <tripinfo id="EGO_vl47" depart="26.00" departLane="6_0" departPos="5.10" departSpeed="0.00" departDelay="26.00" arrival="83.00" arrivalLane="0_0" arrivalPos="92.80" arrivalSpeed="10.00" duration="57.00" routeLength="189.53" waitingTime="18.00" waitingCount="12" stopTime="1.00" timeLoss="35.65" rerouteNo="0" devices="tripinfo_EGO_vl47" vType="car" speedFactor="0.90" vaporized=""/>
    <tripinfo id="EGO_vl52" depart="33.00" departLane="5_0" departPos="5.10" departSpeed="0.00" departDelay="33.00" arrival="84.00" arrivalLane="3_0" arrivalPos="92.80" arrivalSpeed="10.00" duration="51.00" routeLength="189.53" waitingTime="14.00" waitingCount="12" stopTime="1.00" timeLoss="30.39" rerouteNo="0" devices="tripinfo_EGO_vl52" vType="car" speedFactor="1.02" vaporized=""/>
    <tripinfo id="EGO_vl51" depart="28.00" departLane="7_0" departPos="5.10" departSpeed="0.00" departDelay="28.00" arrival="85.00" arrivalLane="1_0" arrivalPos="92.80" arrivalSpeed="10.00" duration="57.00" routeLength="194.70" waitingTime="21.00" waitingCount="13" stopTime="2.00" timeLoss="34.85" rerouteNo="0" devices="tripinfo_EGO_vl51" vType="car" speedFactor="1.17" vaporized=""/>
    <tripinfo id="EGO_vl48" depart="30.00" departLane="6_0" departPos="5.10" departSpeed="0.00" departDelay="30.00" arrival="87.00" arrivalLane="1_0" arrivalPos="92.80" arrivalSpeed="10.00" duration="57.00" routeLength="194.90" waitingTime="18.00" waitingCount="12" stopTime="1.00" timeLoss="35.69" rerouteNo="0" devices="tripinfo_EGO_vl48" vType="car" speedFactor="0.88" vaporized=""/>
    <tripinfo id="EGO_vl55" depart="37.00" departLane="5_0" departPos="5.10" departSpeed="0.00" departDelay="37.00" arrival="88.00" arrivalLane="0_0" arrivalPos="92.80" arrivalSpeed="10.00" duration="51.00" routeLength="194.69" waitingTime="14.00" waitingCount="12" stopTime="1.00" timeLoss="30.09" rerouteNo="0" devices="tripinfo_EGO_vl55" vType="car" speedFactor="1.00" vaporized=""/>
    <tripinfo id="EGO_vl53" depart="32.00" departLane="7_0" departPos="5.10" departSpeed="0.00" departDelay="32.00" arrival="89.00" arrivalLane="2_0" arrivalPos="92.80" arrivalSpeed="10.00" duration="57.00" routeLength="189.53" waitingTime="21.00" waitingCount="13" stopTime="1.00" timeLoss="35.80" rerouteNo="0" devices="tripinfo_EGO_vl53" vType="car" speedFactor="1.10" vaporized=""/>
    <tripinfo id="EGO_vl72" depart="33.00" departLane="4_0" departPos="5.10" departSpeed="0.00" departDelay="33.00" arrival="89.00" arrivalLane="1_0" arrivalPos="92.80" arrivalSpeed="10.00" duration="56.00" routeLength="189.53" waitingTime="16.00" waitingCount="14" stopTime="2.00" timeLoss="34.03" rerouteNo="0" devices="tripinfo_EGO_vl72" vType="car" speedFactor="0.94" vaporized=""/>
    <tripinfo id="EGO_vl49" depart="36.00" departLane="6_0" departPos="5.10" departSpeed="0.00" departDelay="36.00" arrival="91.00" arrivalLane="1_0" arrivalPos="92.80" arrivalSpeed="10.00" duration="55.00" routeLength="194.90" waitingTime="17.00" waitingCount="12" stopTime="1.00" timeLoss="33.97" rerouteNo="0" devices="tripinfo_EGO_vl49" vType="car" speedFactor="0.85" vaporized=""/>
    <tripinfo id="EGO_vl57" depart="42.00" departLane="5_0" departPos="5.10" departSpeed="0.00" departDelay="42.00" arrival="91.00" arrivalLane="3_0" arrivalPos="92.80" arrivalSpeed="10.00" duration="49.00" routeLength="189.53" waitingTime="14.00" waitingCount="12" stopTime="1.00" timeLoss="28.77" rerouteNo="0" devices="tripinfo_EGO_vl57" vType="car" speedFactor="1.14" vaporized=""/>
    <tripinfo id="EGO_vl59" depart="37.00" departLane="7_0" departPos="5.10" departSpeed="0.00" departDelay="37.00" arrival="93.00" arrivalLane="0_0" arrivalPos="92.80" arrivalSpeed="10.00" duration="56.00" routeLength="194.90" waitingTime="20.00" waitingCount="13" stopTime="2.00" timeLoss="34.51" rerouteNo="0" devices="tripinfo_EGO_vl59" vType="car" speedFactor="0.97" vaporized=""/>
    <tripinfo id="EGO_vl73" depart="39.00" departLane="4_0" departPos="5.10" departSpeed="0.00" departDelay="39.00" arrival="93.00" arrivalLane="2_0" arrivalPos="92.80" arrivalSpeed="10.00" duration="54.00" routeLength="194.70" waitingTime="16.00" waitingCount="14" stopTime="1.00" timeLoss="32.86" rerouteNo="0" devices="tripinfo_EGO_vl73" vType="car" speedFactor="1.06" vaporized=""/>
    <tripinfo id="EGO_vl61" depart="47.00" departLane="5_0" departPos="5.10" departSpeed="0.00" departDelay="47.00" arrival="95.00" arrivalLane="2_0" arrivalPos="92.80" arrivalSpeed="10.00" duration="48.00" routeLength="194.90" waitingTime="13.00" waitingCount="11" stopTime="2.00" timeLoss="26.52" rerouteNo="0" devices="tripinfo_EGO_vl61" vType="car" speedFactor="1.12" vaporized=""/>
    <tripinfo id="EGO_vl50" depart="40.00" departLane="6_0" departPos="5.10" departSpeed="0.00" departDelay="40.00" arrival="96.00" arrivalLane="0_0" arrivalPos="92.80" arrivalSpeed="10.00" duration="56.00" routeLength="189.53" waitingTime="17.00" waitingCount="12" stopTime="2.00" timeLoss="33.89" rerouteNo="0" devices="tripinfo_EGO_vl50" vType="car" speedFactor="0.85" vaporized=""/>
    <tripinfo id="EGO_vl63" depart="44.00" departLane="7_0" departPos="5.10" departSpeed="0.00" departDelay="44.00" arrival="97.00" arrivalLane="0_0" arrivalPos="92.80" arrivalSpeed="10.00" duration="53.00" routeLength="194.90" waitingTime="19.00" waitingCount="12" stopTime="2.00" timeLoss="31.51" rerouteNo="0" devices="tripinfo_EGO_vl63" vType="car" speedFactor="0.99" vaporized=""/>
    <tripinfo id="EGO_vl77" depart="43.00" departLane="4_0" departPos="5.10" departSpeed="0.00" departDelay="43.00" arrival="97.00" arrivalLane="3_0" arrivalPos="92.80" arrivalSpeed="10.00" duration="54.00" routeLength="194.90" waitingTime="16.00" waitingCount="14" stopTime="1.00" timeLoss="32.76" rerouteNo="0" devices="tripinfo_EGO_vl77" vType="car" speedFactor="0.98" vaporized=""/>
    <tripinfo id="EGO_vl64" depart="51.00" departLane="5_0" departPos="5.10" departSpeed="0.00" departDelay="51.00" arrival="99.00" arrivalLane="2_0" arrivalPos="92.80" arrivalSpeed="10.00" duration="48.00" routeLength="194.90" waitingTime="14.00" waitingCount="11" stopTime="1.00" timeLoss="27.08" rerouteNo="0" devices="tripinfo_EGO_vl64" vType="car" speedFactor="0.94" vaporized=""/>
    <tripinfo id="EGO_vl66" depart="47.00" departLane="7_0" departPos="5.10" departSpeed="0.00" departDelay="47.00" arrival="101.00" arrivalLane="1_0" arrivalPos="92.80" arrivalSpeed="10.00" duration="54.00" routeLength="194.70" waitingTime="20.00" waitingCount="12" stopTime="1.00" timeLoss="32.85" rerouteNo="0" devices="tripinfo_EGO_vl66" vType="car" speedFactor="0.91" vaporized=""/>
    <tripinfo id="EGO_vl78" depart="49.00" departLane="4_0" departPos="5.10" departSpeed="0.00" departDelay="49.00" arrival="101.00" arrivalLane="2_0" arrivalPos="92.80" arrivalSpeed="10.00" duration="52.00" routeLength="194.70" waitingTime="16.00" waitingCount="14" stopTime="1.00" timeLoss="30.86" rerouteNo="0" devices="tripinfo_EGO_vl78" vType="car" speedFactor="1.01" vaporized=""/>
    <tripinfo id="EGO_vl54" depart="45.00" departLane="6_0" departPos="5.10" departSpeed="0.00" departDelay="45.00" arrival="103.00" arrivalLane="1_0" arrivalPos="92.80" arrivalSpeed="10.00" duration="58.00" routeLength="194.90" waitingTime="18.00" waitingCount="12" stopTime="3.00" timeLoss="35.11" rerouteNo="0" devices="tripinfo_EGO_vl54" vType="car" speedFactor="1.00" vaporized=""/>
    <tripinfo id="EGO_vl71" depart="55.00" departLane="5_0" departPos="5.10" departSpeed="0.00" departDelay="55.00" arrival="105.00" arrivalLane="0_0" arrivalPos="92.80" arrivalSpeed="10.00" duration="50.00" routeLength="194.69" waitingTime="14.00" waitingCount="11" stopTime="1.00" timeLoss="28.91" rerouteNo="0" devices="tripinfo_EGO_vl71" vType="car" speedFactor="0.97" vaporized=""/>
    <tripinfo id="EGO_vl67" depart="52.00" departLane="7_0" departPos="5.10" departSpeed="0.00" departDelay="52.00" arrival="107.00" arrivalLane="1_0" arrivalPos="92.80" arrivalSpeed="10.00" duration="55.00" routeLength="194.70" waitingTime="20.00" waitingCount="13" stopTime="2.00" timeLoss="32.85" rerouteNo="0" devices="tripinfo_EGO_vl67" vType="car" speedFactor="0.91" vaporized=""/>
    <tripinfo id="EGO_vl86" depart="53.00" departLane="4_0" departPos="5.10" departSpeed="0.00" departDelay="53.00" arrival="107.00" arrivalLane="2_0" arrivalPos="92.80" arrivalSpeed="10.00" duration="54.00" routeLength="194.70" waitingTime="17.00" waitingCount="15" stopTime="1.00" timeLoss="32.86" rerouteNo="0" devices="tripinfo_EGO_vl86" vType="car" speedFactor="1.00" vaporized=""/>