<?xml version="1.0" encoding="UTF-8"?>

<!-- generated on 2022-04-16 10:30:34 by Eclipse SUMO sumo Version 1.12.0
<configuration xmlns:xsi="http://www.w3.org/2001/XMLSchema-instance" xsi:noNamespaceSchemaLocation="http://sumo.dlr.de/xsd/sumoConfiguration.xsd">

    <input>
        <net-file value="network/net.net.xml"/>
        <route-files value="network/grid.rou.xml"/>
    </input>

    <output>
        <tripinfo-output value="temp/Out.xml"/>
    </output>

    <processing>
        <collision.action value="none"/>
    </processing>

    <report>
        <no-warnings value="true"/>
    </report>

    <traci_server>
        <remote-port value="64396"/>
    </traci_server>

</configuration>
-->

<tripinfos xmlns:xsi="http://www.w3.org/2001/XMLSchema-instance" xsi:noNamespaceSchemaLocation="http://sumo.dlr.de/xsd/tripinfo_file.xsd">
    <tripinfo id="EGO_vl4" depart="0.00" departLane="4_0" departPos="5.10" departSpeed="0.00" departDelay="0.00" arrival="22.00" arrivalLane="2_0" arrivalPos="92.80" arrivalSpeed="10.00" duration="22.00" routeLength="194.70" waitingTime="0.00" waitingCount="0" stopTime="1.00" timeLoss="0.87" rerouteNo="0" devices="tripinfo_EGO_vl4" vType="car" speedFactor="1.03" vaporized=""/>
    <tripinfo id="EGO_vl3" depart="0.00" departLane="5_0" departPos="5.10" departSpeed="0.00" departDelay="0.00" arrival="23.00" arrivalLane="3_0" arrivalPos="92.80" arrivalSpeed="10.00" duration="23.00" routeLength="189.53" waitingTime="0.00" waitingCount="0" stopTime="2.00" timeLoss="0.81" rerouteNo="0" devices="tripinfo_EGO_vl3" vType="car" speedFactor="1.08" vaporized=""/>
    <tripinfo id="EGO_vl1" depart="0.00" departLane="7_0" departPos="5.10" departSpeed="0.00" departDelay="0.00" arrival="24.00" arrivalLane="2_0" arrivalPos="92.80" arrivalSpeed="10.00" duration="24.00" routeLength="189.53" waitingTime="0.00" waitingCount="0" stopTime="3.00" timeLoss="1.67" rerouteNo="0" devices="tripinfo_EGO_vl1" vType="car" speedFactor="0.94" vaporized=""/>
    <tripinfo id="EGO_vl0" depart="0.00" departLane="6_0" departPos="5.10" departSpeed="0.00" departDelay="0.00" arrival="25.00" arrivalLane="3_0" arrivalPos="92.80" arrivalSpeed="10.00" duration="25.00" routeLength="194.69" waitingTime="0.00" waitingCount="0" stopTime="4.00" timeLoss="0.66" rerouteNo="0" devices="tripinfo_EGO_vl0" vType="car" speedFactor="1.06" vaporized=""/>
    <tripinfo id="EGO_vl2" depart="1.00" departLane="6_0" departPos="5.10" departSpeed="0.00" departDelay="1.00" arrival="28.00" arrivalLane="0_0" arrivalPos="92.80" arrivalSpeed="10.00" duration="27.00" routeLength="189.53" waitingTime="4.00" waitingCount="1" stopTime="1.00" timeLoss="5.85" rerouteNo="0" devices="tripinfo_EGO_vl2" vType="car" speedFactor="1.01" vaporized=""/>
</tripinfos>
