<?xml version="1.0" encoding="UTF-8"?>

<!-- generated on 2022-04-14 12:37:08 by Eclipse SUMO sumo Version 1.12.0
<configuration xmlns:xsi="http://www.w3.org/2001/XMLSchema-instance" xsi:noNamespaceSchemaLocation="http://sumo.dlr.de/xsd/sumoConfiguration.xsd">

    <input>
        <net-file value="network/net.net.xml"/>
        <route-files value="network/grid.rou.xml"/>
    </input>

    <output>
        <tripinfo-output value="results/OUT_egoPolicy10000.xms"/>
    </output>

    <report>
        <no-warnings value="true"/>
    </report>

    <traci_server>
        <remote-port value="53931"/>
    </traci_server>

</configuration>
-->

<tripinfos xmlns:xsi="http://www.w3.org/2001/XMLSchema-instance" xsi:noNamespaceSchemaLocation="http://sumo.dlr.de/xsd/tripinfo_file.xsd">
    <tripinfo id="PRO_vl0" depart="0.00" departLane="4_0" departPos="5.10" departSpeed="0.00" departDelay="0.00" arrival="13.00" arrivalLane="2_0" arrivalPos="92.80" arrivalSpeed="10.00" duration="13.00" routeLength="194.70" waitingTime="1.00" waitingCount="1" stopTime="1.00" timeLoss="0.33" rerouteNo="0" devices="tripinfo_PRO_vl0" vType="car" speedFactor="1.06" vaporized="teleport"/>
    <tripinfo id="PRO_vl2" depart="0.00" departLane="5_0" departPos="5.10" departSpeed="0.00" departDelay="0.00" arrival="13.00" arrivalLane="0_0" arrivalPos="92.80" arrivalSpeed="10.00" duration="13.00" routeLength="194.69" waitingTime="1.00" waitingCount="1" stopTime="1.00" timeLoss="0.27" rerouteNo="0" devices="tripinfo_PRO_vl2" vType="car" speedFactor="1.01" vaporized="teleport"/>
    <tripinfo id="PRO_vl6" depart="1.00" departLane="7_0" departPos="5.10" departSpeed="0.00" departDelay="1.00" arrival="17.00" arrivalLane="0_0" arrivalPos="92.80" arrivalSpeed="10.00" duration="16.00" routeLength="194.90" waitingTime="2.00" waitingCount="2" stopTime="1.00" timeLoss="3.51" rerouteNo="0" devices="tripinfo_PRO_vl6" vType="car" speedFactor="1.05" vaporized="teleport"/>
    <tripinfo id="PRO_vl7" depart="1.00" departLane="5_0" departPos="5.10" departSpeed="0.00" departDelay="1.00" arrival="17.00" arrivalLane="0_0" arrivalPos="92.80" arrivalSpeed="10.00" duration="16.00" routeLength="194.69" waitingTime="2.00" waitingCount="2" stopTime="1.00" timeLoss="4.10" rerouteNo="0" devices="tripinfo_PRO_vl7" vType="car" speedFactor="0.89" vaporized="teleport"/>
    <tripinfo id="PRO_vl1" depart="0.00" departLane="7_0" departPos="5.10" departSpeed="0.00" departDelay="0.00" arrival="22.00" arrivalLane="2_0" arrivalPos="92.80" arrivalSpeed="10.00" duration="22.00" routeLength="189.53" waitingTime="1.00" waitingCount="1" stopTime="1.00" timeLoss="0.51" rerouteNo="0" devices="tripinfo_PRO_vl1" vType="car" speedFactor="0.94" vaporized=""/>
    <tripinfo id="PRO_vl9" depart="0.00" departLane="6_0" departPos="5.10" departSpeed="0.00" departDelay="0.00" arrival="22.00" arrivalLane="0_0" arrivalPos="92.80" arrivalSpeed="10.00" duration="22.00" routeLength="189.53" waitingTime="1.00" waitingCount="1" stopTime="1.00" timeLoss="0.51" rerouteNo="0" devices="tripinfo_PRO_vl9" vType="car" speedFactor="0.86" vaporized=""/>
    <tripinfo id="PRO_vl4" depart="3.00" departLane="4_0" departPos="5.10" departSpeed="0.00" departDelay="3.00" arrival="24.00" arrivalLane="3_0" arrivalPos="92.80" arrivalSpeed="10.00" duration="21.00" routeLength="194.90" waitingTime="6.00" waitingCount="3" stopTime="1.00" timeLoss="9.51" rerouteNo="0" devices="tripinfo_PRO_vl4" vType="car" speedFactor="1.03" vaporized="teleport"/>
    <tripinfo id="PRO_vl3" depart="1.00" departLane="4_0" departPos="5.10" departSpeed="0.00" departDelay="1.00" arrival="26.00" arrivalLane="1_0" arrivalPos="92.80" arrivalSpeed="10.00" duration="25.00" routeLength="189.53" waitingTime="2.00" waitingCount="2" stopTime="1.00" timeLoss="3.51" rerouteNo="0" devices="tripinfo_PRO_vl3" vType="car" speedFactor="1.08" vaporized=""/>
    <tripinfo id="PRO_vl10" depart="1.00" departLane="6_0" departPos="5.10" departSpeed="0.00" departDelay="1.00" arrival="26.00" arrivalLane="0_0" arrivalPos="92.80" arrivalSpeed="10.00" duration="25.00" routeLength="189.53" waitingTime="2.00" waitingCount="2" stopTime="1.00" timeLoss="3.51" rerouteNo="0" devices="tripinfo_PRO_vl10" vType="car" speedFactor="1.09" vaporized=""/>
    <tripinfo id="PRO_vl17" depart="5.00" departLane="7_0" departPos="5.10" departSpeed="0.00" departDelay="5.00" arrival="26.00" arrivalLane="2_0" arrivalPos="92.80" arrivalSpeed="10.00" duration="21.00" routeLength="189.53" waitingTime="5.00" waitingCount="4" stopTime="1.00" timeLoss="8.88" rerouteNo="0" devices="tripinfo_PRO_vl17" vType="car" speedFactor="0.94" vaporized="teleport"/>
    <tripinfo id="PRO_vl8" depart="3.00" departLane="5_0" departPos="5.10" departSpeed="0.00" departDelay="3.00" arrival="30.00" arrivalLane="3_0" arrivalPos="92.80" arrivalSpeed="10.00" duration="27.00" routeLength="189.53" waitingTime="4.00" waitingCount="3" stopTime="1.00" timeLoss="5.26" rerouteNo="0" devices="tripinfo_PRO_vl8" vType="car" speedFactor="0.94" vaporized=""/>
    <tripinfo id="PRO_vl12" depart="3.00" departLane="7_0" departPos="5.10" departSpeed="0.00" departDelay="3.00" arrival="30.00" arrivalLane="2_0" arrivalPos="92.80" arrivalSpeed="10.00" duration="27.00" routeLength="189.53" waitingTime="3.00" waitingCount="3" stopTime="1.00" timeLoss="5.51" rerouteNo="0" devices="tripinfo_PRO_vl12" vType="car" speedFactor="1.05" vaporized=""/>
    <tripinfo id="PRO_vl13" depart="3.00" departLane="6_0" departPos="5.10" departSpeed="0.00" departDelay="3.00" arrival="33.00" arrivalLane="3_0" arrivalPos="92.80" arrivalSpeed="10.00" duration="30.00" routeLength="194.69" waitingTime="6.00" waitingCount="3" stopTime="1.00" timeLoss="9.40" rerouteNo="0" devices="tripinfo_PRO_vl13" vType="car" speedFactor="1.12" vaporized=""/>
    <tripinfo id="PRO_vl15" depart="5.00" departLane="5_0" departPos="5.10" departSpeed="0.00" departDelay="5.00" arrival="34.00" arrivalLane="2_0" arrivalPos="92.80" arrivalSpeed="10.00" duration="29.00" routeLength="194.90" waitingTime="6.00" waitingCount="3" stopTime="1.00" timeLoss="6.98" rerouteNo="0" devices="tripinfo_PRO_vl15" vType="car" speedFactor="0.93" vaporized=""/>
    <tripinfo id="PRO_vl5" depart="5.00" departLane="4_0" departPos="5.10" departSpeed="0.00" departDelay="5.00" arrival="38.00" arrivalLane="1_0" arrivalPos="92.80" arrivalSpeed="10.00" duration="33.00" routeLength="189.53" waitingTime="9.00" waitingCount="4" stopTime="1.00" timeLoss="12.26" rerouteNo="0" devices="tripinfo_PRO_vl5" vType="car" speedFactor="0.83" vaporized=""/>
    <tripinfo id="PRO_vl21" depart="7.00" departLane="5_0" departPos="5.10" departSpeed="0.00" departDelay="7.00" arrival="38.00" arrivalLane="0_0" arrivalPos="92.80" arrivalSpeed="10.00" duration="31.00" routeLength="194.69" waitingTime="8.00" waitingCount="4" stopTime="1.00" timeLoss="9.74" rerouteNo="0" devices="tripinfo_PRO_vl21" vType="car" speedFactor="1.01" vaporized=""/>
    <tripinfo id="PRO_vl25" depart="7.00" departLane="7_0" departPos="5.10" departSpeed="0.00" departDelay="7.00" arrival="40.00" arrivalLane="2_0" arrivalPos="92.80" arrivalSpeed="10.00" duration="33.00" routeLength="189.53" waitingTime="8.00" waitingCount="5" stopTime="1.00" timeLoss="11.26" rerouteNo="0" devices="tripinfo_PRO_vl25" vType="car" speedFactor="0.87" vaporized=""/>
    <tripinfo id="PRO_vl22" depart="8.00" departLane="5_0" departPos="5.10" departSpeed="0.00" departDelay="8.00" arrival="42.00" arrivalLane="0_0" arrivalPos="92.80" arrivalSpeed="10.00" duration="34.00" routeLength="194.69" waitingTime="10.00" waitingCount="5" stopTime="1.00" timeLoss="11.70" rerouteNo="0" devices="tripinfo_PRO_vl22" vType="car" speedFactor="0.98" vaporized=""/>
    <tripinfo id="PRO_vl14" depart="5.00" departLane="6_0" departPos="5.10" departSpeed="0.00" departDelay="5.00" arrival="44.00" arrivalLane="3_0" arrivalPos="92.80" arrivalSpeed="10.00" duration="39.00" routeLength="194.69" waitingTime="15.00" waitingCount="4" stopTime="1.00" timeLoss="18.00" rerouteNo="0" devices="tripinfo_PRO_vl14" vType="car" speedFactor="0.99" vaporized=""/>
    <tripinfo id="PRO_vl28" depart="8.00" departLane="7_0" departPos="5.10" departSpeed="0.00" departDelay="8.00" arrival="45.00" arrivalLane="0_0" arrivalPos="92.80" arrivalSpeed="10.00" duration="37.00" routeLength="194.90" waitingTime="11.00" waitingCount="5" stopTime="1.00" timeLoss="14.98" rerouteNo="0" devices="tripinfo_PRO_vl28" vType="car" speedFactor="1.13" vaporized=""/>
    <tripinfo id="PRO_vl24" depart="10.00" departLane="5_0" departPos="5.10" departSpeed="0.00" departDelay="10.00" arrival="46.00" arrivalLane="2_0" arrivalPos="92.80" arrivalSpeed="10.00" duration="36.00" routeLength="194.90" waitingTime="12.00" waitingCount="6" stopTime="1.00" timeLoss="13.98" rerouteNo="0" devices="tripinfo_PRO_vl24" vType="car" speedFactor="0.83" vaporized=""/>
    <tripinfo id="PRO_vl11" depart="7.00" departLane="4_0" departPos="5.10" departSpeed="0.00" departDelay="7.00" arrival="48.00" arrivalLane="2_0" arrivalPos="92.80" arrivalSpeed="10.00" duration="41.00" routeLength="194.70" waitingTime="26.00" waitingCount="4" stopTime="1.00" timeLoss="28.76" rerouteNo="0" devices="tripinfo_PRO_vl11" vType="car" speedFactor="1.03" vaporized="teleport"/>
    <tripinfo id="PRO_vl16" depart="7.00" departLane="6_0" departPos="5.10" departSpeed="0.00" departDelay="7.00" arrival="49.00" arrivalLane="1_0" arrivalPos="92.80" arrivalSpeed="10.00" duration="42.00" routeLength="194.90" waitingTime="18.00" waitingCount="4" stopTime="1.00" timeLoss="20.98" rerouteNo="0" devices="tripinfo_PRO_vl16" vType="car" speedFactor="0.88" vaporized=""/>
    <tripinfo id="PRO_vl18" depart="8.00" departLane="6_0" departPos="5.10" departSpeed="0.00" departDelay="8.00" arrival="53.00" arrivalLane="0_0" arrivalPos="92.80" arrivalSpeed="10.00" duration="45.00" routeLength="189.53" waitingTime="20.00" waitingCount="5" stopTime="1.00" timeLoss="22.98" rerouteNo="0" devices="tripinfo_PRO_vl18" vType="car" speedFactor="0.94" vaporized=""/>
    <tripinfo id="PRO_vl26" depart="12.00" departLane="5_0" departPos="5.10" departSpeed="0.00" departDelay="12.00" arrival="55.00" arrivalLane="3_0" arrivalPos="92.80" arrivalSpeed="10.00" duration="43.00" routeLength="189.53" waitingTime="19.00" waitingCount="7" stopTime="1.00" timeLoss="21.98" rerouteNo="0" devices="tripinfo_PRO_vl26" vType="car" speedFactor="0.92" vaporized=""/>
    <tripinfo id="PRO_vl19" depart="10.00" departLane="6_0" departPos="5.10" departSpeed="0.00" departDelay="10.00" arrival="57.00" arrivalLane="3_0" arrivalPos="92.80" arrivalSpeed="10.00" duration="47.00" routeLength="194.69" waitingTime="22.00" waitingCount="6" stopTime="1.00" timeLoss="24.90" rerouteNo="0" devices="tripinfo_PRO_vl19" vType="car" speedFactor="1.16" vaporized=""/>
    <tripinfo id="PRO_vl32" depart="10.00" departLane="7_0" departPos="5.10" departSpeed="0.00" departDelay="10.00" arrival="57.00" arrivalLane="2_0" arrivalPos="92.80" arrivalSpeed="10.00" duration="47.00" routeLength="189.53" waitingTime="21.00" waitingCount="6" stopTime="1.00" timeLoss="25.98" rerouteNo="0" devices="tripinfo_PRO_vl32" vType="car" speedFactor="1.01" vaporized=""/>
    <tripinfo id="PRO_vl27" depart="14.00" departLane="5_0" departPos="5.10" departSpeed="0.00" departDelay="14.00" arrival="59.00" arrivalLane="3_0" arrivalPos="92.80" arrivalSpeed="10.00" duration="45.00" routeLength="189.53" waitingTime="21.00" waitingCount="8" stopTime="1.00" timeLoss="22.98" rerouteNo="0" devices="tripinfo_PRO_vl27" vType="car" speedFactor="0.95" vaporized=""/>
    <tripinfo id="PRO_vl20" depart="8.00" departLane="4_0" departPos="5.10" departSpeed="0.00" departDelay="8.00" arrival="61.00" arrivalLane="1_0" arrivalPos="92.80" arrivalSpeed="10.00" duration="53.00" routeLength="189.53" waitingTime="28.00" waitingCount="5" stopTime="1.00" timeLoss="31.98" rerouteNo="0" devices="tripinfo_PRO_vl20" vType="car" speedFactor="1.02" vaporized=""/>
    <tripinfo id="PRO_vl33" depart="12.00" departLane="7_0" departPos="5.10" departSpeed="0.00" departDelay="12.00" arrival="63.00" arrivalLane="1_0" arrivalPos="92.80" arrivalSpeed="10.00" duration="51.00" routeLength="194.70" waitingTime="25.00" waitingCount="7" stopTime="1.00" timeLoss="28.91" rerouteNo="0" devices="tripinfo_PRO_vl33" vType="car" speedFactor="1.17" vaporized=""/>
    <tripinfo id="PRO_vl31" depart="15.00" departLane="5_0" departPos="5.10" departSpeed="0.00" departDelay="15.00" arrival="64.00" arrivalLane="2_0" arrivalPos="92.80" arrivalSpeed="10.00" duration="49.00" routeLength="194.90" waitingTime="24.00" waitingCount="9" stopTime="1.00" timeLoss="26.98" rerouteNo="0" devices="tripinfo_PRO_vl31" vType="car" speedFactor="1.15" vaporized=""/>
    <tripinfo id="PRO_vl23" depart="10.00" departLane="4_0" departPos="5.10" departSpeed="0.00" departDelay="10.00" arrival="66.00" arrivalLane="3_0" arrivalPos="92.80" arrivalSpeed="10.00" duration="56.00" routeLength="194.90" waitingTime="31.00" waitingCount="6" stopTime="1.00" timeLoss="33.98" rerouteNo="0" devices="tripinfo_PRO_vl23" vType="car" speedFactor="0.89" vaporized=""/>
    <tripinfo id="PRO_vl29" depart="12.00" departLane="4_0" departPos="5.10" departSpeed="0.00" departDelay="12.00" arrival="72.00" arrivalLane="3_0" arrivalPos="92.80" arrivalSpeed="10.00" duration="60.00" routeLength="194.90" waitingTime="35.00" waitingCount="7" stopTime="1.00" timeLoss="37.98" rerouteNo="0" devices="tripinfo_PRO_vl29" vType="car" speedFactor="0.93" vaporized=""/>
    <tripinfo id="PRO_vl37" depart="17.00" departLane="5_0" departPos="5.10" departSpeed="0.00" departDelay="17.00" arrival="72.00" arrivalLane="0_0" arrivalPos="92.80" arrivalSpeed="10.00" duration="55.00" routeLength="194.69" waitingTime="30.00" waitingCount="10" stopTime="1.00" timeLoss="32.92" rerouteNo="0" devices="tripinfo_PRO_vl37" vType="car" speedFactor="1.18" vaporized=""/>
    <tripinfo id="PRO_vl34" depart="14.00" departLane="7_0" departPos="5.10" departSpeed="0.00" departDelay="14.00" arrival="74.00" arrivalLane="1_0" arrivalPos="92.80" arrivalSpeed="10.00" duration="60.00" routeLength="194.70" waitingTime="34.00" waitingCount="8" stopTime="1.00" timeLoss="38.72" rerouteNo="0" devices="tripinfo_PRO_vl34" vType="car" speedFactor="0.99" vaporized=""/>
    <tripinfo id="PRO_vl39" depart="19.00" departLane="5_0" departPos="5.10" departSpeed="0.00" departDelay="19.00" arrival="76.00" arrivalLane="3_0" arrivalPos="92.80" arrivalSpeed="10.00" duration="57.00" routeLength="189.53" waitingTime="32.00" waitingCount="11" stopTime="1.00" timeLoss="34.98" rerouteNo="0" devices="tripinfo_PRO_vl39" vType="car" speedFactor="0.90" vaporized=""/>
    <tripinfo id="PRO_vl38" depart="14.00" departLane="4_0" departPos="5.10" departSpeed="0.00" departDelay="14.00" arrival="77.00" arrivalLane="3_0" arrivalPos="92.80" arrivalSpeed="10.00" duration="63.00" routeLength="194.90" waitingTime="38.00" waitingCount="8" stopTime="1.00" timeLoss="40.98" rerouteNo="0" devices="tripinfo_PRO_vl38" vType="car" speedFactor="1.10" vaporized=""/>
    <tripinfo id="PRO_vl40" depart="23.00" departLane="5_0" departPos="5.10" departSpeed="0.00" departDelay="23.00" arrival="80.00" arrivalLane="0_0" arrivalPos="92.80" arrivalSpeed="10.00" duration="57.00" routeLength="194.69" waitingTime="33.00" waitingCount="11" stopTime="1.00" timeLoss="34.77" rerouteNo="0" devices="tripinfo_PRO_vl40" vType="car" speedFactor="1.03" vaporized=""/>
    <tripinfo id="PRO_vl45" depart="15.00" departLane="4_0" departPos="5.10" departSpeed="0.00" departDelay="15.00" arrival="86.00" arrivalLane="1_0" arrivalPos="92.80" arrivalSpeed="10.00" duration="71.00" routeLength="189.53" waitingTime="45.00" waitingCount="9" stopTime="1.00" timeLoss="49.98" rerouteNo="0" devices="tripinfo_PRO_vl45" vType="car" speedFactor="1.09" vaporized=""/>
    <tripinfo id="PRO_vl46" depart="17.00" departLane="4_0" departPos="5.10" departSpeed="0.00" departDelay="17.00" arrival="90.00" arrivalLane="3_0" arrivalPos="92.80" arrivalSpeed="10.00" duration="73.00" routeLength="194.90" waitingTime="47.00" waitingCount="10" stopTime="1.00" timeLoss="50.98" rerouteNo="0" devices="tripinfo_PRO_vl46" vType="car" speedFactor="1.00" vaporized=""/>
    <tripinfo id="PRO_vl35" depart="15.00" departLane="7_0" departPos="5.10" departSpeed="0.00" departDelay="15.00" arrival="92.00" arrivalLane="0_0" arrivalPos="92.80" arrivalSpeed="10.00" duration="77.00" routeLength="194.90" waitingTime="50.00" waitingCount="9" stopTime="1.00" timeLoss="55.98" rerouteNo="0" devices="tripinfo_PRO_vl35" vType="car" speedFactor="1.02" vaporized=""/>
    <tripinfo id="PRO_vl47" depart="19.00" departLane="4_0" departPos="5.10" departSpeed="0.00" departDelay="19.00" arrival="94.00" arrivalLane="1_0" arrivalPos="92.80" arrivalSpeed="10.00" duration="75.00" routeLength="189.53" waitingTime="49.00" waitingCount="11" stopTime="1.00" timeLoss="52.98" rerouteNo="0" devices="tripinfo_PRO_vl47" vType="car" speedFactor="0.90" vaporized=""/>
    <tripinfo id="PRO_vl41" depart="17.00" departLane="7_0" departPos="5.10" departSpeed="0.00" departDelay="17.00" arrival="98.00" arrivalLane="2_0" arrivalPos="92.80" arrivalSpeed="10.00" duration="81.00" routeLength="189.53" waitingTime="54.00" waitingCount="10" stopTime="1.00" timeLoss="59.98" rerouteNo="0" devices="tripinfo_PRO_vl41" vType="car" speedFactor="0.96" vaporized=""/>
    <tripinfo id="PRO_vl48" depart="23.00" departLane="4_0" departPos="5.10" departSpeed="0.00" departDelay="23.00" arrival="98.00" arrivalLane="3_0" arrivalPos="92.80" arrivalSpeed="10.00" duration="75.00" routeLength="194.90" waitingTime="50.00" waitingCount="11" stopTime="1.00" timeLoss="52.98" rerouteNo="0" devices="tripinfo_PRO_vl48" vType="car" speedFactor="0.88" vaporized=""/>
    <tripinfo id="PRO_vl42" depart="27.00" departLane="5_0" departPos="5.10" departSpeed="0.00" departDelay="27.00" arrival="103.00" arrivalLane="0_0" arrivalPos="92.80" arrivalSpeed="10.00" duration="76.00" routeLength="194.69" waitingTime="52.00" waitingCount="11" stopTime="1.00" timeLoss="54.84" rerouteNo="0" devices="tripinfo_PRO_vl42" vType="car" speedFactor="1.09" vaporized=""/>
    <tripinfo id="PRO_vl30" depart="12.00" departLane="6_0" departPos="5.10" departSpeed="0.00" departDelay="12.00" arrival="105.00" arrivalLane="1_0" arrivalPos="92.80" arrivalSpeed="10.00" duration="93.00" routeLength="194.90" waitingTime="68.00" waitingCount="7" stopTime="1.00" timeLoss="71.98" rerouteNo="0" devices="tripinfo_PRO_vl30" vType="car" speedFactor="1.18" vaporized=""/>
    <tripinfo id="PRO_vl44" depart="31.00" departLane="5_0" departPos="5.10" departSpeed="0.00" departDelay="31.00" arrival="107.00" arrivalLane="3_0" arrivalPos="92.80" arrivalSpeed="10.00" duration="76.00" routeLength="189.53" waitingTime="53.00" waitingCount="11" stopTime="1.00" timeLoss="53.98" rerouteNo="0" devices="tripinfo_PRO_vl44" vType="car" speedFactor="1.04" vaporized=""/>
    <tripinfo id="PRO_vl36" depart="14.00" departLane="6_0" departPos="5.10" departSpeed="0.00" departDelay="14.00" arrival="109.00" arrivalLane="3_0" arrivalPos="92.80" arrivalSpeed="10.00" duration="95.00" routeLength="194.69" waitingTime="70.00" waitingCount="8" stopTime="1.00" timeLoss="72.70" rerouteNo="0" devices="tripinfo_PRO_vl36" vType="car" speedFactor="0.97" vaporized=""/>
    <tripinfo id="PRO_vl51" depart="27.00" departLane="4_0" departPos="5.10" departSpeed="0.00" departDelay="27.00" arrival="111.00" arrivalLane="2_0" arrivalPos="92.80" arrivalSpeed="10.00" duration="84.00" routeLength="194.70" waitingTime="60.00" waitingCount="11" stopTime="1.00" timeLoss="62.91" rerouteNo="0" devices="tripinfo_PRO_vl51" vType="car" speedFactor="1.17" vaporized=""/>
    <tripinfo id="PRO_vl43" depart="15.00" departLane="6_0" departPos="5.10" departSpeed="0.00" departDelay="15.00" arrival="115.00" arrivalLane="0_0" arrivalPos="92.80" arrivalSpeed="10.00" duration="100.00" routeLength="189.53" waitingTime="74.00" waitingCount="9" stopTime="1.00" timeLoss="78.98" rerouteNo="0" devices="tripinfo_PRO_vl43" vType="car" speedFactor="1.04" vaporized=""/>
    <tripinfo id="PRO_vl55" depart="34.00" departLane="4_0" departPos="5.10" departSpeed="0.00" departDelay="34.00" arrival="115.00" arrivalLane="1_0" arrivalPos="92.80" arrivalSpeed="10.00" duration="81.00" routeLength="189.53" waitingTime="57.00" waitingCount="11" stopTime="1.00" timeLoss="58.98" rerouteNo="0" devices="tripinfo_PRO_vl55" vType="car" speedFactor="1.00" vaporized=""/>
    <tripinfo id="PRO_vl49" depart="17.00" departLane="6_0" departPos="5.10" departSpeed="0.00" departDelay="17.00" arrival="119.00" arrivalLane="0_0" arrivalPos="92.80" arrivalSpeed="10.00" duration="102.00" routeLength="189.53" waitingTime="76.00" waitingCount="10" stopTime="1.00" timeLoss="79.98" rerouteNo="0" devices="tripinfo_PRO_vl49" vType="car" speedFactor="0.85" vaporized=""/>
    <tripinfo id="PRO_vl56" depart="39.00" departLane="4_0" departPos="5.10" departSpeed="0.00" departDelay="39.00" arrival="119.00" arrivalLane="2_0" arrivalPos="92.80" arrivalSpeed="10.00" duration="80.00" routeLength="194.70" waitingTime="57.00" waitingCount="11" stopTime="1.00" timeLoss="57.59" rerouteNo="0" devices="tripinfo_PRO_vl56" vType="car" speedFactor="0.90" vaporized=""/>
    <tripinfo id="PRO_vl52" depart="35.00" departLane="5_0" departPos="5.10" departSpeed="0.00" departDelay="35.00" arrival="120.00" arrivalLane="3_0" arrivalPos="92.80" arrivalSpeed="10.00" duration="85.00" routeLength="189.53" waitingTime="62.00" waitingCount="11" stopTime="1.00" timeLoss="63.98" rerouteNo="0" devices="tripinfo_PRO_vl52" vType="car" speedFactor="1.02" vaporized=""/>
    <tripinfo id="PRO_vl50" depart="19.00" departLane="6_0" departPos="5.10" departSpeed="0.00" departDelay="19.00" arrival="123.00" arrivalLane="0_0" arrivalPos="92.80" arrivalSpeed="10.00" duration="104.00" routeLength="189.53" waitingTime="78.00" waitingCount="11" stopTime="1.00" timeLoss="81.98" rerouteNo="0" devices="tripinfo_PRO_vl50" vType="car" speedFactor="0.85" vaporized=""/>
    <tripinfo id="PRO_vl54" depart="39.00" departLane="5_0" departPos="5.10" departSpeed="0.00" departDelay="39.00" arrival="126.00" arrivalLane="2_0" arrivalPos="92.80" arrivalSpeed="10.00" duration="87.00" routeLength="194.90" waitingTime="64.00" waitingCount="11" stopTime="1.00" timeLoss="64.98" rerouteNo="0" devices="tripinfo_PRO_vl54" vType="car" speedFactor="1.00" vaporized=""/>
    <tripinfo id="PRO_vl58" depart="58.00" departLane="4_0" departPos="5.10" departSpeed="0.00" departDelay="58.00" arrival="126.00" arrivalLane="1_0" arrivalPos="92.80" arrivalSpeed="10.00" duration="68.00" routeLength="189.53" waitingTime="45.00" waitingCount="11" stopTime="1.00" timeLoss="46.98" rerouteNo="0" devices="tripinfo_PRO_vl58" vType="car" speedFactor="1.02" vaporized=""/>
    <tripinfo id="PRO_vl53" depart="23.00" departLane="6_0" departPos="5.10" departSpeed="0.00" departDelay="23.00" arrival="128.00" arrivalLane="1_0" arrivalPos="92.80" arrivalSpeed="10.00" duration="105.00" routeLength="194.90" waitingTime="89.00" waitingCount="11" stopTime="1.00" timeLoss="92.98" rerouteNo="0" devices="tripinfo_PRO_vl53" vType="car" speedFactor="1.10" vaporized="teleport"/>
    <tripinfo id="PRO_vl59" depart="63.00" departLane="4_0" departPos="5.10" departSpeed="0.00" departDelay="63.00" arrival="130.00" arrivalLane="2_0" arrivalPos="92.80" arrivalSpeed="10.00" duration="67.00" routeLength="194.70" waitingTime="44.00" waitingCount="11" stopTime="1.00" timeLoss="44.69" rerouteNo="0" devices="tripinfo_PRO_vl59" vType="car" speedFactor="0.97" vaporized=""/>
    <tripinfo id="PRO_vl60" depart="43.00" departLane="5_0" departPos="5.10" departSpeed="0.00" departDelay="43.00" arrival="133.00" arrivalLane="2_0" arrivalPos="92.80" arrivalSpeed="10.00" duration="90.00" routeLength="194.90" waitingTime="67.00" waitingCount="11" stopTime="1.00" timeLoss="67.98" rerouteNo="0" devices="tripinfo_PRO_vl60" vType="car" speedFactor="1.08" vaporized=""/>
    <tripinfo id="PRO_vl63" depart="69.00" departLane="4_0" departPos="5.10" departSpeed="0.00" departDelay="69.00" arrival="134.00" arrivalLane="3_0" arrivalPos="92.80" arrivalSpeed="10.00" duration="65.00" routeLength="194.90" waitingTime="42.00" waitingCount="11" stopTime="1.00" timeLoss="42.98" rerouteNo="0" devices="tripinfo_PRO_vl63" vType="car" speedFactor="0.99" vaporized=""/>
    <tripinfo id="PRO_vl57" depart="19.00" departLane="7_0" departPos="5.10" departSpeed="0.00" departDelay="19.00" arrival="137.00" arrivalLane="1_0" arrivalPos="92.80" arrivalSpeed="10.00" duration="118.00" routeLength="194.70" waitingTime="91.00" waitingCount="11" stopTime="1.00" timeLoss="96.89" rerouteNo="0" devices="tripinfo_PRO_vl57" vType="car" speedFactor="1.14" vaporized=""/>
    <tripinfo id="PRO_vl66" depart="47.00" departLane="5_0" departPos="5.10" departSpeed="0.00" departDelay="47.00" arrival="137.00" arrivalLane="0_0" arrivalPos="92.80" arrivalSpeed="10.00" duration="90.00" routeLength="194.69" waitingTime="67.00" waitingCount="11" stopTime="1.00" timeLoss="67.60" rerouteNo="0" devices="tripinfo_PRO_vl66" vType="car" speedFactor="0.91" vaporized=""/>
    <tripinfo id="PRO_vl67" depart="56.00" departLane="5_0" departPos="5.10" departSpeed="0.00" departDelay="56.00" arrival="142.00" arrivalLane="3_0" arrivalPos="92.80" arrivalSpeed="10.00" duration="86.00" routeLength="189.53" waitingTime="63.00" waitingCount="11" stopTime="1.00" timeLoss="63.98" rerouteNo="0" devices="tripinfo_PRO_vl67" vType="car" speedFactor="0.91" vaporized=""/>
    <tripinfo id="PRO_vl61" depart="27.00" departLane="6_0" departPos="5.10" departSpeed="0.00" departDelay="27.00" arrival="143.00" arrivalLane="3_0" arrivalPos="92.80" arrivalSpeed="10.00" duration="116.00" routeLength="194.69" waitingTime="92.00" waitingCount="11" stopTime="1.00" timeLoss="93.86" rerouteNo="0" devices="tripinfo_PRO_vl61" vType="car" speedFactor="1.12" vaporized=""/>
    <tripinfo id="PRO_vl69" depart="74.00" departLane="4_0" departPos="5.10" departSpeed="0.00" departDelay="74.00" arrival="146.00" arrivalLane="2_0" arrivalPos="92.80" arrivalSpeed="10.00" duration="72.00" routeLength="194.70" waitingTime="49.00" waitingCount="11" stopTime="1.00" timeLoss="50.76" rerouteNo="0" devices="tripinfo_PRO_vl69" vType="car" speedFactor="1.02" vaporized=""/>
    <tripinfo id="PRO_vl62" depart="35.00" departLane="6_0" departPos="5.10" departSpeed="0.00" departDelay="35.00" arrival="148.00" arrivalLane="1_0" arrivalPos="92.80" arrivalSpeed="10.00" duration="113.00" routeLength="194.90" waitingTime="89.00" waitingCount="11" stopTime="1.00" timeLoss="91.98" rerouteNo="0" devices="tripinfo_PRO_vl62" vType="car" speedFactor="1.02" vaporized=""/>
    <tripinfo id="PRO_vl73" depart="78.00" departLane="4_0" departPos="5.10" departSpeed="0.00" departDelay="78.00" arrival="150.00" arrivalLane="3_0" arrivalPos="92.80" arrivalSpeed="10.00" duration="72.00" routeLength="194.90" waitingTime="49.00" waitingCount="11" stopTime="1.00" timeLoss="49.98" rerouteNo="0" devices="tripinfo_PRO_vl73" vType="car" speedFactor="1.06" vaporized=""/>
    <tripinfo id="PRO_vl68" depart="61.00" departLane="5_0" departPos="5.10" departSpeed="0.00" departDelay="61.00" arrival="157.00" arrivalLane="2_0" arrivalPos="92.80" arrivalSpeed="10.00" duration="96.00" routeLength="194.90" waitingTime="73.00" waitingCount="11" stopTime="1.00" timeLoss="74.98" rerouteNo="0" devices="tripinfo_PRO_vl68" vType="car" speedFactor="1.04" vaporized=""/>
    <tripinfo id="PRO_vl74" depart="87.00" departLane="4_0" departPos="5.10" departSpeed="0.00" departDelay="87.00" arrival="159.00" arrivalLane="1_0" arrivalPos="92.80" arrivalSpeed="10.00" duration="72.00" routeLength="189.53" waitingTime="49.00" waitingCount="11" stopTime="1.00" timeLoss="50.98" rerouteNo="0" devices="tripinfo_PRO_vl74" vType="car" speedFactor="0.96" vaporized=""/>
    <tripinfo id="PRO_vl71" depart="67.00" departLane="5_0" departPos="5.10" departSpeed="0.00" departDelay="67.00" arrival="161.00" arrivalLane="3_0" arrivalPos="92.80" arrivalSpeed="10.00" duration="94.00" routeLength="189.53" waitingTime="71.00" waitingCount="11" stopTime="1.00" timeLoss="71.98" rerouteNo="0" devices="tripinfo_PRO_vl71" vType="car" speedFactor="0.97" vaporized=""/>
    <tripinfo id="PRO_vl70" depart="45.00" departLane="6_0" departPos="5.10" departSpeed="0.00" departDelay="45.00" arrival="162.00" arrivalLane="1_0" arrivalPos="92.80" arrivalSpeed="10.00" duration="117.00" routeLength="194.90" waitingTime="103.00" waitingCount="11" stopTime="1.00" timeLoss="104.98" rerouteNo="0" devices="tripinfo_PRO_vl70" vType="car" speedFactor="1.02" vaporized="teleport"/>
    <tripinfo id="PRO_vl76" depart="91.00" departLane="4_0" departPos="5.10" departSpeed="0.00" departDelay="91.00" arrival="165.00" arrivalLane="2_0" arrivalPos="92.80" arrivalSpeed="10.00" duration="74.00" routeLength="194.70" waitingTime="51.00" waitingCount="11" stopTime="1.00" timeLoss="51.77" rerouteNo="0" devices="tripinfo_PRO_vl76" vType="car" speedFactor="1.03" vaporized=""/>
    <tripinfo id="PRO_vl77" depart="73.00" departLane="5_0" departPos="5.10" departSpeed="0.00" departDelay="73.00" arrival="168.00" arrivalLane="2_0" arrivalPos="92.80" arrivalSpeed="10.00" duration="95.00" routeLength="194.90" waitingTime="72.00" waitingCount="11" stopTime="1.00" timeLoss="72.98" rerouteNo="0" devices="tripinfo_PRO_vl77" vType="car" speedFactor="0.98" vaporized=""/>
    <tripinfo id="PRO_vl79" depart="95.00" departLane="4_0" departPos="5.10" departSpeed="0.00" departDelay="95.00" arrival="169.00" arrivalLane="3_0" arrivalPos="92.80" arrivalSpeed="10.00" duration="74.00" routeLength="194.90" waitingTime="51.00" waitingCount="11" stopTime="1.00" timeLoss="51.98" rerouteNo="0" devices="tripinfo_PRO_vl79" vType="car" speedFactor="1.09" vaporized=""/>