<?xml version="1.0" encoding="UTF-8"?>

<!-- generated on 2022-04-14 09:39:48 by Eclipse SUMO sumo Version 1.12.0
<configuration xmlns:xsi="http://www.w3.org/2001/XMLSchema-instance" xsi:noNamespaceSchemaLocation="http://sumo.dlr.de/xsd/sumoConfiguration.xsd">

    <input>
        <net-file value="network/net.net.xml"/>
        <route-files value="network/grid.rou.xml"/>
    </input>

    <output>
        <tripinfo-output value="results/OUT_POLICY_EXP_2_20220414-074238.csv.xms"/>
    </output>

    <report>
        <no-warnings value="true"/>
    </report>

    <traci_server>
        <remote-port value="52706"/>
    </traci_server>

</configuration>
-->

<tripinfos xmlns:xsi="http://www.w3.org/2001/XMLSchema-instance" xsi:noNamespaceSchemaLocation="http://sumo.dlr.de/xsd/tripinfo_file.xsd">
    <tripinfo id="EGO_vl1" depart="0.00" departLane="7_0" departPos="5.10" departSpeed="0.00" departDelay="0.00" arrival="22.00" arrivalLane="0_0" arrivalPos="92.80" arrivalSpeed="10.00" duration="22.00" routeLength="194.90" waitingTime="0.00" waitingCount="0" stopTime="1.00" timeLoss="1.23" rerouteNo="0" devices="tripinfo_EGO_vl1" vType="car" speedFactor="0.94" vaporized=""/>
    <tripinfo id="EGO_vl0" depart="0.00" departLane="4_0" departPos="5.10" departSpeed="0.00" departDelay="0.00" arrival="24.00" arrivalLane="2_0" arrivalPos="92.80" arrivalSpeed="10.00" duration="24.00" routeLength="194.70" waitingTime="1.00" waitingCount="1" stopTime="1.00" timeLoss="2.91" rerouteNo="0" devices="tripinfo_EGO_vl0" vType="car" speedFactor="1.06" vaporized=""/>
    <tripinfo id="EGO_vl10" depart="0.00" departLane="6_0" departPos="5.10" departSpeed="0.00" departDelay="0.00" arrival="24.00" arrivalLane="3_0" arrivalPos="92.80" arrivalSpeed="10.00" duration="24.00" routeLength="194.69" waitingTime="2.00" waitingCount="1" stopTime="1.00" timeLoss="3.36" rerouteNo="0" devices="tripinfo_EGO_vl10" vType="car" speedFactor="1.09" vaporized=""/>
    <tripinfo id="EGO_vl6" depart="0.00" departLane="5_0" departPos="5.10" departSpeed="0.00" departDelay="0.00" arrival="25.00" arrivalLane="0_0" arrivalPos="92.80" arrivalSpeed="10.00" duration="25.00" routeLength="194.69" waitingTime="2.00" waitingCount="1" stopTime="1.00" timeLoss="3.39" rerouteNo="0" devices="tripinfo_EGO_vl6" vType="car" speedFactor="1.05" vaporized=""/>
    <tripinfo id="EGO_vl3" depart="1.00" departLane="7_0" departPos="5.10" departSpeed="0.00" departDelay="1.00" arrival="26.00" arrivalLane="0_0" arrivalPos="92.80" arrivalSpeed="10.00" duration="25.00" routeLength="194.90" waitingTime="1.00" waitingCount="1" stopTime="1.00" timeLoss="4.29" rerouteNo="0" devices="tripinfo_EGO_vl3" vType="car" speedFactor="1.08" vaporized=""/>
    <tripinfo id="EGO_vl2" depart="1.00" departLane="4_0" departPos="5.10" departSpeed="0.00" departDelay="1.00" arrival="28.00" arrivalLane="3_0" arrivalPos="92.80" arrivalSpeed="10.00" duration="27.00" routeLength="194.90" waitingTime="2.00" waitingCount="2" stopTime="1.00" timeLoss="6.23" rerouteNo="0" devices="tripinfo_EGO_vl2" vType="car" speedFactor="1.01" vaporized=""/>
    <tripinfo id="EGO_vl13" depart="1.00" departLane="6_0" departPos="5.10" departSpeed="0.00" departDelay="1.00" arrival="30.00" arrivalLane="1_0" arrivalPos="92.80" arrivalSpeed="10.00" duration="29.00" routeLength="194.90" waitingTime="4.00" waitingCount="3" stopTime="1.00" timeLoss="7.76" rerouteNo="0" devices="tripinfo_EGO_vl13" vType="car" speedFactor="1.12" vaporized=""/>
    <tripinfo id="EGO_vl7" depart="1.00" departLane="5_0" departPos="5.10" departSpeed="0.00" departDelay="1.00" arrival="31.00" arrivalLane="3_0" arrivalPos="92.80" arrivalSpeed="10.00" duration="30.00" routeLength="189.53" waitingTime="5.00" waitingCount="3" stopTime="1.00" timeLoss="8.65" rerouteNo="0" devices="tripinfo_EGO_vl7" vType="car" speedFactor="0.89" vaporized=""/>
    <tripinfo id="EGO_vl8" depart="3.00" departLane="7_0" departPos="5.10" departSpeed="0.00" departDelay="3.00" arrival="31.00" arrivalLane="0_0" arrivalPos="92.80" arrivalSpeed="10.00" duration="28.00" routeLength="194.90" waitingTime="2.00" waitingCount="2" stopTime="1.00" timeLoss="6.95" rerouteNo="0" devices="tripinfo_EGO_vl8" vType="car" speedFactor="0.94" vaporized=""/>
    <tripinfo id="EGO_vl4" depart="3.00" departLane="4_0" departPos="5.10" departSpeed="0.00" departDelay="3.00" arrival="32.00" arrivalLane="1_0" arrivalPos="92.80" arrivalSpeed="10.00" duration="29.00" routeLength="189.53" waitingTime="3.00" waitingCount="3" stopTime="1.00" timeLoss="8.56" rerouteNo="0" devices="tripinfo_EGO_vl4" vType="car" speedFactor="1.03" vaporized=""/>
    <tripinfo id="EGO_vl18" depart="3.00" departLane="6_0" departPos="5.10" departSpeed="0.00" departDelay="3.00" arrival="34.00" arrivalLane="3_0" arrivalPos="92.80" arrivalSpeed="10.00" duration="31.00" routeLength="194.69" waitingTime="5.00" waitingCount="4" stopTime="1.00" timeLoss="9.48" rerouteNo="0" devices="tripinfo_EGO_vl18" vType="car" speedFactor="0.94" vaporized=""/>
    <tripinfo id="EGO_vl12" depart="3.00" departLane="5_0" departPos="5.10" departSpeed="0.00" departDelay="3.00" arrival="35.00" arrivalLane="0_0" arrivalPos="92.80" arrivalSpeed="10.00" duration="32.00" routeLength="194.69" waitingTime="6.00" waitingCount="4" stopTime="1.00" timeLoss="10.39" rerouteNo="0" devices="tripinfo_EGO_vl12" vType="car" speedFactor="1.05" vaporized=""/>
    <tripinfo id="EGO_vl14" depart="5.00" departLane="7_0" departPos="5.10" departSpeed="0.00" departDelay="5.00" arrival="36.00" arrivalLane="0_0" arrivalPos="92.80" arrivalSpeed="10.00" duration="31.00" routeLength="194.90" waitingTime="3.00" waitingCount="3" stopTime="1.00" timeLoss="10.28" rerouteNo="0" devices="tripinfo_EGO_vl14" vType="car" speedFactor="0.99" vaporized=""/>
    <tripinfo id="EGO_vl5" depart="5.00" departLane="4_0" departPos="5.10" departSpeed="0.00" departDelay="5.00" arrival="37.00" arrivalLane="1_0" arrivalPos="92.80" arrivalSpeed="10.00" duration="32.00" routeLength="189.53" waitingTime="4.00" waitingCount="4" stopTime="1.00" timeLoss="10.69" rerouteNo="0" devices="tripinfo_EGO_vl5" vType="car" speedFactor="0.83" vaporized=""/>
    <tripinfo id="EGO_vl23" depart="5.00" departLane="6_0" departPos="5.10" departSpeed="0.00" departDelay="5.00" arrival="39.00" arrivalLane="3_0" arrivalPos="92.80" arrivalSpeed="10.00" duration="34.00" routeLength="194.69" waitingTime="6.00" waitingCount="5" stopTime="1.00" timeLoss="12.26" rerouteNo="0" devices="tripinfo_EGO_vl23" vType="car" speedFactor="0.89" vaporized=""/>
    <tripinfo id="EGO_vl9" depart="7.00" departLane="4_0" departPos="5.10" departSpeed="0.00" departDelay="7.00" arrival="41.00" arrivalLane="1_0" arrivalPos="92.80" arrivalSpeed="10.00" duration="34.00" routeLength="189.53" waitingTime="5.00" waitingCount="5" stopTime="1.00" timeLoss="12.67" rerouteNo="0" devices="tripinfo_EGO_vl9" vType="car" speedFactor="0.86" vaporized=""/>
    <tripinfo id="EGO_vl16" depart="5.00" departLane="5_0" departPos="5.10" departSpeed="0.00" departDelay="5.00" arrival="41.00" arrivalLane="3_0" arrivalPos="92.80" arrivalSpeed="10.00" duration="36.00" routeLength="189.53" waitingTime="9.00" waitingCount="6" stopTime="1.00" timeLoss="15.06" rerouteNo="0" devices="tripinfo_EGO_vl16" vType="car" speedFactor="0.88" vaporized=""/>
    <tripinfo id="EGO_vl30" depart="7.00" departLane="7_0" departPos="5.10" departSpeed="0.00" departDelay="7.00" arrival="42.00" arrivalLane="1_0" arrivalPos="92.80" arrivalSpeed="10.00" duration="35.00" routeLength="194.70" waitingTime="5.00" waitingCount="5" stopTime="1.00" timeLoss="14.35" rerouteNo="0" devices="tripinfo_EGO_vl30" vType="car" speedFactor="1.18" vaporized=""/>
    <tripinfo id="EGO_vl24" depart="7.00" departLane="6_0" departPos="5.10" departSpeed="0.00" departDelay="7.00" arrival="44.00" arrivalLane="3_0" arrivalPos="92.80" arrivalSpeed="10.00" duration="37.00" routeLength="194.69" waitingTime="8.00" waitingCount="7" stopTime="1.00" timeLoss="15.57" rerouteNo="0" devices="tripinfo_EGO_vl24" vType="car" speedFactor="0.83" vaporized=""/>
    <tripinfo id="EGO_vl11" depart="8.00" departLane="4_0" departPos="5.10" departSpeed="0.00" departDelay="8.00" arrival="46.00" arrivalLane="3_0" arrivalPos="92.80" arrivalSpeed="10.00" duration="38.00" routeLength="194.90" waitingTime="7.00" waitingCount="7" stopTime="1.00" timeLoss="16.98" rerouteNo="0" devices="tripinfo_EGO_vl11" vType="car" speedFactor="1.03" vaporized=""/>
    <tripinfo id="EGO_vl17" depart="7.00" departLane="5_0" departPos="5.10" departSpeed="0.00" departDelay="7.00" arrival="46.00" arrivalLane="0_0" arrivalPos="92.80" arrivalSpeed="10.00" duration="39.00" routeLength="194.69" waitingTime="10.00" waitingCount="7" stopTime="1.00" timeLoss="17.48" rerouteNo="0" devices="tripinfo_EGO_vl17" vType="car" speedFactor="0.94" vaporized=""/>
    <tripinfo id="EGO_vl35" depart="8.00" departLane="7_0" departPos="5.10" departSpeed="0.00" departDelay="8.00" arrival="47.00" arrivalLane="0_0" arrivalPos="92.80" arrivalSpeed="10.00" duration="39.00" routeLength="194.90" waitingTime="6.00" waitingCount="6" stopTime="1.00" timeLoss="18.45" rerouteNo="0" devices="tripinfo_EGO_vl35" vType="car" speedFactor="1.02" vaporized=""/>
    <tripinfo id="EGO_vl19" depart="8.00" departLane="5_0" departPos="5.10" departSpeed="0.00" departDelay="8.00" arrival="49.00" arrivalLane="3_0" arrivalPos="92.80" arrivalSpeed="10.00" duration="41.00" routeLength="189.53" waitingTime="11.00" waitingCount="8" stopTime="1.00" timeLoss="20.48" rerouteNo="0" devices="tripinfo_EGO_vl19" vType="car" speedFactor="1.16" vaporized=""/>
    <tripinfo id="EGO_vl15" depart="10.00" departLane="4_0" departPos="5.10" departSpeed="0.00" departDelay="10.00" arrival="50.00" arrivalLane="2_0" arrivalPos="92.80" arrivalSpeed="10.00" duration="40.00" routeLength="194.70" waitingTime="8.00" waitingCount="8" stopTime="1.00" timeLoss="18.49" rerouteNo="0" devices="tripinfo_EGO_vl15" vType="car" speedFactor="0.93" vaporized=""/>
    <tripinfo id="EGO_vl26" depart="8.00" departLane="6_0" departPos="5.10" departSpeed="0.00" departDelay="8.00" arrival="50.00" arrivalLane="0_0" arrivalPos="92.80" arrivalSpeed="10.00" duration="42.00" routeLength="189.53" waitingTime="11.00" waitingCount="8" stopTime="1.00" timeLoss="20.81" rerouteNo="0" devices="tripinfo_EGO_vl26" vType="car" speedFactor="0.92" vaporized=""/>
    <tripinfo id="EGO_vl36" depart="10.00" departLane="7_0" departPos="5.10" departSpeed="0.00" departDelay="10.00" arrival="52.00" arrivalLane="1_0" arrivalPos="92.80" arrivalSpeed="10.00" duration="42.00" routeLength="194.70" waitingTime="7.00" waitingCount="7" stopTime="1.00" timeLoss="20.45" rerouteNo="0" devices="tripinfo_EGO_vl36" vType="car" speedFactor="0.97" vaporized=""/>
    <tripinfo id="EGO_vl21" depart="12.00" departLane="4_0" departPos="5.10" departSpeed="0.00" departDelay="12.00" arrival="53.00" arrivalLane="3_0" arrivalPos="92.80" arrivalSpeed="10.00" duration="41.00" routeLength="194.90" waitingTime="9.00" waitingCount="9" stopTime="1.00" timeLoss="20.23" rerouteNo="0" devices="tripinfo_EGO_vl21" vType="car" speedFactor="1.01" vaporized=""/>
    <tripinfo id="EGO_vl20" depart="10.00" departLane="5_0" departPos="5.10" departSpeed="0.00" departDelay="10.00" arrival="55.00" arrivalLane="0_0" arrivalPos="92.80" arrivalSpeed="10.00" duration="45.00" routeLength="194.69" waitingTime="13.00" waitingCount="10" stopTime="1.00" timeLoss="24.19" rerouteNo="0" devices="tripinfo_EGO_vl20" vType="car" speedFactor="1.02" vaporized=""/>
    <tripinfo id="EGO_vl27" depart="10.00" departLane="6_0" departPos="5.10" departSpeed="0.00" departDelay="10.00" arrival="55.00" arrivalLane="3_0" arrivalPos="92.80" arrivalSpeed="10.00" duration="45.00" routeLength="194.69" waitingTime="13.00" waitingCount="10" stopTime="1.00" timeLoss="24.17" rerouteNo="0" devices="tripinfo_EGO_vl27" vType="car" speedFactor="0.95" vaporized=""/>
    <tripinfo id="EGO_vl22" depart="14.00" departLane="4_0" departPos="5.10" departSpeed="0.00" departDelay="14.00" arrival="57.00" arrivalLane="3_0" arrivalPos="92.80" arrivalSpeed="10.00" duration="43.00" routeLength="194.90" waitingTime="10.00" waitingCount="10" stopTime="1.00" timeLoss="22.23" rerouteNo="0" devices="tripinfo_EGO_vl22" vType="car" speedFactor="0.98" vaporized=""/>
    <tripinfo id="EGO_vl37" depart="12.00" departLane="7_0" departPos="5.10" departSpeed="0.00" departDelay="12.00" arrival="57.00" arrivalLane="0_0" arrivalPos="92.80" arrivalSpeed="10.00" duration="45.00" routeLength="194.90" waitingTime="9.00" waitingCount="9" stopTime="1.00" timeLoss="24.15" rerouteNo="0" devices="tripinfo_EGO_vl37" vType="car" speedFactor="1.18" vaporized=""/>
    <tripinfo id="EGO_vl28" depart="12.00" departLane="6_0" departPos="5.10" departSpeed="0.00" departDelay="12.00" arrival="59.00" arrivalLane="0_0" arrivalPos="92.80" arrivalSpeed="10.00" duration="47.00" routeLength="189.53" waitingTime="14.00" waitingCount="11" stopTime="1.00" timeLoss="26.49" rerouteNo="0" devices="tripinfo_EGO_vl28" vType="car" speedFactor="1.13" vaporized=""/>
    <tripinfo id="EGO_vl25" depart="12.00" departLane="5_0" departPos="5.10" departSpeed="0.00" departDelay="12.00" arrival="61.00" arrivalLane="0_0" arrivalPos="92.80" arrivalSpeed="10.00" duration="49.00" routeLength="194.69" waitingTime="15.00" waitingCount="12" stopTime="1.00" timeLoss="27.81" rerouteNo="0" devices="tripinfo_EGO_vl25" vType="car" speedFactor="0.87" vaporized=""/>
    <tripinfo id="EGO_vl29" depart="15.00" departLane="4_0" departPos="5.10" departSpeed="0.00" departDelay="15.00" arrival="61.00" arrivalLane="1_0" arrivalPos="92.80" arrivalSpeed="10.00" duration="46.00" routeLength="189.53" waitingTime="11.00" waitingCount="11" stopTime="1.00" timeLoss="25.62" rerouteNo="0" devices="tripinfo_EGO_vl29" vType="car" speedFactor="0.93" vaporized=""/>
    <tripinfo id="EGO_vl41" depart="14.00" departLane="7_0" departPos="5.10" departSpeed="0.00" departDelay="14.00" arrival="61.00" arrivalLane="2_0" arrivalPos="92.80" arrivalSpeed="10.00" duration="47.00" routeLength="189.53" waitingTime="10.00" waitingCount="10" stopTime="1.00" timeLoss="26.61" rerouteNo="0" devices="tripinfo_EGO_vl41" vType="car" speedFactor="0.96" vaporized=""/>
    <tripinfo id="EGO_vl32" depart="14.00" departLane="6_0" departPos="5.10" departSpeed="0.00" departDelay="14.00" arrival="64.00" arrivalLane="3_0" arrivalPos="92.80" arrivalSpeed="10.00" duration="50.00" routeLength="194.69" waitingTime="15.00" waitingCount="12" stopTime="1.00" timeLoss="28.43" rerouteNo="0" devices="tripinfo_EGO_vl32" vType="car" speedFactor="1.01" vaporized=""/>
    <tripinfo id="EGO_vl31" depart="17.00" departLane="4_0" departPos="5.10" departSpeed="0.00" departDelay="17.00" arrival="65.00" arrivalLane="1_0" arrivalPos="92.80" arrivalSpeed="10.00" duration="48.00" routeLength="189.53" waitingTime="12.00" waitingCount="12" stopTime="1.00" timeLoss="27.48" rerouteNo="0" devices="tripinfo_EGO_vl31" vType="car" speedFactor="1.15" vaporized=""/>
    <tripinfo id="EGO_vl43" depart="14.00" departLane="5_0" departPos="5.10" departSpeed="0.00" departDelay="14.00" arrival="65.00" arrivalLane="2_0" arrivalPos="92.80" arrivalSpeed="10.00" duration="51.00" routeLength="194.90" waitingTime="16.00" waitingCount="13" stopTime="1.00" timeLoss="29.95" rerouteNo="0" devices="tripinfo_EGO_vl43" vType="car" speedFactor="1.04" vaporized=""/>
    <tripinfo id="EGO_vl59" depart="15.00" departLane="7_0" departPos="5.10" departSpeed="0.00" departDelay="15.00" arrival="67.00" arrivalLane="0_0" arrivalPos="92.80" arrivalSpeed="10.00" duration="52.00" routeLength="194.90" waitingTime="12.00" waitingCount="12" stopTime="1.00" timeLoss="31.08" rerouteNo="0" devices="tripinfo_EGO_vl59" vType="car" speedFactor="0.97" vaporized=""/>
    <tripinfo id="EGO_vl33" depart="19.00" departLane="4_0" departPos="5.10" departSpeed="0.00" departDelay="19.00" arrival="69.00" arrivalLane="1_0" arrivalPos="92.80" arrivalSpeed="10.00" duration="50.00" routeLength="189.53" waitingTime="13.00" waitingCount="13" stopTime="1.00" timeLoss="29.47" rerouteNo="0" devices="tripinfo_EGO_vl33" vType="car" speedFactor="1.17" vaporized=""/>
    <tripinfo id="EGO_vl34" depart="15.00" departLane="6_0" departPos="5.10" departSpeed="0.00" departDelay="15.00" arrival="69.00" arrivalLane="3_0" arrivalPos="92.80" arrivalSpeed="10.00" duration="54.00" routeLength="194.69" waitingTime="17.00" waitingCount="14" stopTime="1.00" timeLoss="33.20" rerouteNo="0" devices="tripinfo_EGO_vl34" vType="car" speedFactor="0.99" vaporized=""/>
    <tripinfo id="EGO_vl45" depart="15.00" departLane="5_0" departPos="5.10" departSpeed="0.00" departDelay="15.00" arrival="71.00" arrivalLane="3_0" arrivalPos="92.80" arrivalSpeed="10.00" duration="56.00" routeLength="189.53" waitingTime="19.00" waitingCount="15" stopTime="1.00" timeLoss="35.80" rerouteNo="0" devices="tripinfo_EGO_vl45" vType="car" speedFactor="1.09" vaporized=""/>
    <tripinfo id="EGO_vl61" depart="17.00" departLane="7_0" departPos="5.10" departSpeed="0.00" departDelay="17.00" arrival="71.00" arrivalLane="2_0" arrivalPos="92.80" arrivalSpeed="10.00" duration="54.00" routeLength="189.53" waitingTime="13.00" waitingCount="13" stopTime="1.00" timeLoss="33.50" rerouteNo="0" devices="tripinfo_EGO_vl61" vType="car" speedFactor="1.12" vaporized=""/>
    <tripinfo id="EGO_vl38" depart="23.00" departLane="4_0" departPos="5.10" departSpeed="0.00" departDelay="23.00" arrival="73.00" arrivalLane="1_0" arrivalPos="92.80" arrivalSpeed="10.00" duration="50.00" routeLength="189.53" waitingTime="13.00" waitingCount="13" stopTime="1.00" timeLoss="29.51" rerouteNo="0" devices="tripinfo_EGO_vl38" vType="car" speedFactor="1.10" vaporized=""/>
    <tripinfo id="EGO_vl39" depart="17.00" departLane="6_0" departPos="5.10" departSpeed="0.00" departDelay="17.00" arrival="74.00" arrivalLane="0_0" arrivalPos="92.80" arrivalSpeed="10.00" duration="57.00" routeLength="189.53" waitingTime="18.00" waitingCount="15" stopTime="1.00" timeLoss="35.64" rerouteNo="0" devices="tripinfo_EGO_vl39" vType="car" speedFactor="0.90" vaporized=""/>
    <tripinfo id="EGO_vl53" depart="17.00" departLane="5_0" departPos="5.10" departSpeed="0.00" departDelay="17.00" arrival="75.00" arrivalLane="3_0" arrivalPos="92.80" arrivalSpeed="10.00" duration="58.00" routeLength="189.53" waitingTime="20.00" waitingCount="16" stopTime="1.00" timeLoss="37.52" rerouteNo="0" devices="tripinfo_EGO_vl53" vType="car" speedFactor="1.10" vaporized=""/>
    <tripinfo id="EGO_vl62" depart="19.00" departLane="7_0" departPos="5.10" departSpeed="0.00" departDelay="19.00" arrival="76.00" arrivalLane="1_0" arrivalPos="92.80" arrivalSpeed="10.00" duration="57.00" routeLength="194.70" waitingTime="14.00" waitingCount="14" stopTime="1.00" timeLoss="35.42" rerouteNo="0" devices="tripinfo_EGO_vl62" vType="car" speedFactor="1.02" vaporized=""/>
    <tripinfo id="EGO_vl40" depart="29.00" departLane="4_0" departPos="5.10" departSpeed="0.00" departDelay="29.00" arrival="77.00" arrivalLane="3_0" arrivalPos="92.80" arrivalSpeed="10.00" duration="48.00" routeLength="194.90" waitingTime="12.00" waitingCount="12" stopTime="1.00" timeLoss="27.23" rerouteNo="0" devices="tripinfo_EGO_vl40" vType="car" speedFactor="1.03" vaporized=""/>
    <tripinfo id="EGO_vl42" depart="19.00" departLane="6_0" departPos="5.10" departSpeed="0.00" departDelay="19.00" arrival="77.00" arrivalLane="0_0" arrivalPos="92.80" arrivalSpeed="10.00" duration="58.00" routeLength="189.53" waitingTime="19.00" waitingCount="16" stopTime="1.00" timeLoss="37.52" rerouteNo="0" devices="tripinfo_EGO_vl42" vType="car" speedFactor="1.09" vaporized=""/>
    <tripinfo id="EGO_vl66" depart="23.00" departLane="7_0" departPos="5.10" departSpeed="0.00" departDelay="23.00" arrival="79.00" arrivalLane="0_0" arrivalPos="92.80" arrivalSpeed="10.00" duration="56.00" routeLength="194.90" waitingTime="14.00" waitingCount="14" stopTime="1.00" timeLoss="35.23" rerouteNo="0" devices="tripinfo_EGO_vl66" vType="car" speedFactor="0.91" vaporized=""/>
    <tripinfo id="EGO_vl46" depart="25.00" departLane="6_0" departPos="5.10" departSpeed="0.00" departDelay="25.00" arrival="81.00" arrivalLane="0_0" arrivalPos="92.80" arrivalSpeed="10.00" duration="56.00" routeLength="189.53" waitingTime="17.00" waitingCount="15" stopTime="1.00" timeLoss="35.58" rerouteNo="0" devices="tripinfo_EGO_vl46" vType="car" speedFactor="1.00" vaporized=""/>
    <tripinfo id="EGO_vl54" depart="19.00" departLane="5_0" departPos="5.10" departSpeed="0.00" departDelay="19.00" arrival="81.00" arrivalLane="2_0" arrivalPos="92.80" arrivalSpeed="10.00" duration="62.00" routeLength="194.90" waitingTime="22.00" waitingCount="18" stopTime="1.00" timeLoss="40.76" rerouteNo="0" devices="tripinfo_EGO_vl54" vType="car" speedFactor="1.00" vaporized=""/>
    <tripinfo id="EGO_vl44" depart="33.00" departLane="4_0" departPos="5.10" departSpeed="0.00" departDelay="33.00" arrival="82.00" arrivalLane="3_0" arrivalPos="92.80" arrivalSpeed="10.00" duration="49.00" routeLength="194.90" waitingTime="12.00" waitingCount="12" stopTime="1.00" timeLoss="27.95" rerouteNo="0" devices="tripinfo_EGO_vl44" vType="car" speedFactor="1.04" vaporized=""/>
    <tripinfo id="EGO_vl70" depart="27.00" departLane="7_0" departPos="5.10" departSpeed="0.00" departDelay="27.00" arrival="83.00" arrivalLane="2_0" arrivalPos="92.80" arrivalSpeed="10.00" duration="56.00" routeLength="189.53" waitingTime="14.00" waitingCount="14" stopTime="1.00" timeLoss="35.56" rerouteNo="0" devices="tripinfo_EGO_vl70" vType="car" speedFactor="1.02" vaporized=""/>
    <tripinfo id="EGO_vl56" depart="25.00" departLane="5_0" departPos="5.10" departSpeed="0.00" departDelay="25.00" arrival="85.00" arrivalLane="3_0" arrivalPos="92.80" arrivalSpeed="10.00" duration="60.00" routeLength="189.53" waitingTime="20.00" waitingCount="17" stopTime="1.00" timeLoss="38.65" rerouteNo="0" devices="tripinfo_EGO_vl56" vType="car" speedFactor="0.90" vaporized=""/>
    <tripinfo id="EGO_vl47" depart="30.00" departLane="6_0" departPos="5.10" departSpeed="0.00" departDelay="30.00" arrival="86.00" arrivalLane="0_0" arrivalPos="92.80" arrivalSpeed="10.00" duration="56.00" routeLength="189.53" waitingTime="16.00" waitingCount="14" stopTime="1.00" timeLoss="34.64" rerouteNo="0" devices="tripinfo_EGO_vl47" vType="car" speedFactor="0.90" vaporized=""/>
    <tripinfo id="EGO_vl48" depart="37.00" departLane="4_0" departPos="5.10" departSpeed="0.00" departDelay="37.00" arrival="87.00" arrivalLane="2_0" arrivalPos="92.80" arrivalSpeed="10.00" duration="50.00" routeLength="194.70" waitingTime="12.00" waitingCount="12" stopTime="1.00" timeLoss="28.53" rerouteNo="0" devices="tripinfo_EGO_vl48" vType="car" speedFactor="0.88" vaporized=""/>
    <tripinfo id="EGO_vl73" depart="31.00" departLane="7_0" departPos="5.10" departSpeed="0.00" departDelay="31.00" arrival="88.00" arrivalLane="1_0" arrivalPos="92.80" arrivalSpeed="10.00" duration="57.00" routeLength="194.70" waitingTime="14.00" waitingCount="14" stopTime="1.00" timeLoss="35.39" rerouteNo="0" devices="tripinfo_EGO_vl73" vType="car" speedFactor="1.06" vaporized=""/>
    <tripinfo id="EGO_vl51" depart="34.00" departLane="6_0" departPos="5.10" departSpeed="0.00" departDelay="34.00" arrival="89.00" arrivalLane="3_0" arrivalPos="92.80" arrivalSpeed="10.00" duration="55.00" routeLength="194.69" waitingTime="16.00" waitingCount="14" stopTime="1.00" timeLoss="34.30" rerouteNo="0" devices="tripinfo_EGO_vl51" vType="car" speedFactor="1.17" vaporized=""/>
    <tripinfo id="EGO_vl57" depart="31.00" departLane="5_0" departPos="5.10" departSpeed="0.00" departDelay="31.00" arrival="89.00" arrivalLane="0_0" arrivalPos="92.80" arrivalSpeed="10.00" duration="58.00" routeLength="194.69" waitingTime="18.00" waitingCount="16" stopTime="1.00" timeLoss="37.12" rerouteNo="0" devices="tripinfo_EGO_vl57" vType="car" speedFactor="1.14" vaporized=""/>
    <tripinfo id="EGO_vl49" depart="41.00" departLane="4_0" departPos="5.10" departSpeed="0.00" departDelay="41.00" arrival="91.00" arrivalLane="1_0" arrivalPos="92.80" arrivalSpeed="10.00" duration="50.00" routeLength="189.53" waitingTime="12.00" waitingCount="12" stopTime="1.00" timeLoss="28.68" rerouteNo="0" devices="tripinfo_EGO_vl49" vType="car" speedFactor="0.85" vaporized=""/>
    <tripinfo id="EGO_vl74" depart="37.00" departLane="7_0" departPos="5.10" departSpeed="0.00" departDelay="37.00" arrival="91.00" arrivalLane="2_0" arrivalPos="92.80" arrivalSpeed="10.00" duration="54.00" routeLength="189.53" waitingTime="14.00" waitingCount="14" stopTime="1.00" timeLoss="33.61" rerouteNo="0" devices="tripinfo_EGO_vl74" vType="car" speedFactor="0.96" vaporized=""/>
    <tripinfo id="EGO_vl68" depart="35.00" departLane="5_0" departPos="5.10" departSpeed="0.00" departDelay="35.00" arrival="93.00" arrivalLane="3_0" arrivalPos="92.80" arrivalSpeed="10.00" duration="58.00" routeLength="189.53" waitingTime="18.00" waitingCount="16" stopTime="1.00" timeLoss="37.55" rerouteNo="0" devices="tripinfo_EGO_vl68" vType="car" speedFactor="1.04" vaporized=""/>
    <tripinfo id="EGO_vl50" depart="46.00" departLane="4_0" departPos="5.10" departSpeed="0.00" departDelay="46.00" arrival="95.00" arrivalLane="2_0" arrivalPos="92.80" arrivalSpeed="10.00" duration="49.00" routeLength="194.70" waitingTime="11.00" waitingCount="11" stopTime="1.00" timeLoss="27.55" rerouteNo="0" devices="tripinfo_EGO_vl50" vType="car" speedFactor="0.85" vaporized=""/>
    <tripinfo id="EGO_vl52" depart="39.00" departLane="6_0" departPos="5.10" departSpeed="0.00" departDelay="39.00" arrival="97.00" arrivalLane="3_0" arrivalPos="92.80" arrivalSpeed="10.00" duration="58.00" routeLength="194.69" waitingTime="18.00" waitingCount="15" stopTime="1.00" timeLoss="37.19" rerouteNo="0" devices="tripinfo_EGO_vl52" vType="car" speedFactor="1.02" vaporized=""/>
    <tripinfo id="EGO_vl77" depart="41.00" departLane="7_0" departPos="5.10" departSpeed="0.00" departDelay="41.00" arrival="97.00" arrivalLane="2_0" arrivalPos="92.80" arrivalSpeed="10.00" duration="56.00" routeLength="189.53" waitingTime="15.00" waitingCount="15" stopTime="1.00" timeLoss="35.43" rerouteNo="0" devices="tripinfo_EGO_vl77" vType="car" speedFactor="0.98" vaporized=""/>
    <tripinfo id="EGO_vl58" depart="50.00" departLane="4_0" departPos="5.10" departSpeed="0.00" departDelay="50.00" arrival="98.00" arrivalLane="1_0" arrivalPos="92.80" arrivalSpeed="10.00" duration="48.00" routeLength="189.53" waitingTime="11.00" waitingCount="11" stopTime="1.00" timeLoss="27.56" rerouteNo="0" devices="tripinfo_EGO_vl58" vType="car" speedFactor="1.02" vaporized=""/>
    <tripinfo id="EGO_vl78" depart="41.00" departLane="5_0" departPos="5.10" departSpeed="0.00" departDelay="41.00" arrival="98.00" arrivalLane="0_0" arrivalPos="92.80" arrivalSpeed="10.00" duration="57.00" routeLength="194.69" waitingTime="16.00" waitingCount="15" stopTime="1.00" timeLoss="35.42" rerouteNo="0" devices="tripinfo_EGO_vl78" vType="car" speedFactor="1.01" vaporized=""/>
    <tripinfo id="EGO_vl79" depart="48.00" departLane="7_0" departPos="5.10" departSpeed="0.00" departDelay="48.00" arrival="101.00" arrivalLane="0_0" arrivalPos="92.80" arrivalSpeed="10.00" duration="53.00" routeLength="194.90" waitingTime="14.00" waitingCount="14" stopTime="1.00" timeLoss="32.23" rerouteNo="0" devices="tripinfo_EGO_vl79" vType="car" speedFactor="1.09" vaporized=""/>
    <tripinfo id="EGO_vl55" depart="43.00" departLane="6_0" departPos="5.10" departSpeed="0.00" departDelay="43.00" arrival="103.00" arrivalLane="0_0" arrivalPos="92.80" arrivalSpeed="10.00" duration="60.00" routeLength="189.53" waitingTime="20.00" waitingCount="16" stopTime="1.00" timeLoss="39.58" rerouteNo="0" devices="tripinfo_EGO_vl55" vType="car" speedFactor="1.00" vaporized=""/>
    <tripinfo id="EGO_vl60" depart="54.00" departLane="4_0" departPos="5.10" departSpeed="0.00" departDelay="54.00" arrival="103.00" arrivalLane="2_0" arrivalPos="92.80" arrivalSpeed="10.00" duration="49.00" routeLength="194.70" waitingTime="11.00" waitingCount="11" stopTime="1.00" timeLoss="27.91" rerouteNo="0" devices="tripinfo_EGO_vl60" vType="car" speedFactor="1.08" vaporized=""/>
    <tripinfo id="EGO_vl83" depart="46.00" departLane="5_0" departPos="5.10" departSpeed="0.00" departDelay="46.00" arrival="105.00" arrivalLane="2_0" arrivalPos="92.80" arrivalSpeed="10.00" duration="59.00" routeLength="194.90" waitingTime="19.00" waitingCount="16" stopTime="1.00" timeLoss="37.83" rerouteNo="0" devices="tripinfo_EGO_vl83" vType="car" speedFactor="0.97" vaporized=""/>
    <tripinfo id="EGO_vl63" depart="50.00" departLane="6_0" departPos="5.10" departSpeed="0.00" departDelay="50.00" arrival="107.00" arrivalLane="0_0" arrivalPos="92.80" arrivalSpeed="10.00" duration="57.00" routeLength="189.53" waitingTime="17.00" waitingCount="15" stopTime="1.00" timeLoss="36.59" rerouteNo="0" devices="tripinfo_EGO_vl63" vType="car" speedFactor="0.99" vaporized=""/>
    <tripinfo id="EGO_vl64" depart="58.00" departLane="4_0" departPos="5.10" departSpeed="0.00" departDelay="58.00" arrival="107.00" arrivalLane="3_0" arrivalPos="92.80" arrivalSpeed="10.00" duration="49.00" routeLength="194.90" waitingTime="11.00" waitingCount="11" stopTime="1.00" timeLoss="28.23" rerouteNo="0" devices="tripinfo_EGO_vl64" vType="car" speedFactor="0.94" vaporized=""/>
    <tripinfo id="EGO_vl80" depart="52.00" departLane="7_0" departPos="5.10" departSpeed="0.00" departDelay="52.00" arrival="109.00" arrivalLane="1_0" arrivalPos="92.80" arrivalSpeed="10.00" duration="57.00" routeLength="194.70" waitingTime="17.00" waitingCount="15" stopTime="1.00" timeLoss="35.92" rerouteNo="0" devices="tripinfo_EGO_vl80" vType="car" speedFactor="1.03" vaporized=""/>