<?xml version="1.0" encoding="UTF-8"?>

<!-- generated on 2022-04-14 14:38:55 by Eclipse SUMO sumo Version 1.12.0
<configuration xmlns:xsi="http://www.w3.org/2001/XMLSchema-instance" xsi:noNamespaceSchemaLocation="http://sumo.dlr.de/xsd/sumoConfiguration.xsd">

    <input>
        <net-file value="network/net.net.xml"/>
        <route-files value="network/grid.rou.xml"/>
    </input>

    <output>
        <tripinfo-output value="results/OUT_egoPolicy50.xms"/>
    </output>

    <report>
        <no-warnings value="true"/>
    </report>

    <traci_server>
        <remote-port value="54526"/>
    </traci_server>

</configuration>
-->

<tripinfos xmlns:xsi="http://www.w3.org/2001/XMLSchema-instance" xsi:noNamespaceSchemaLocation="http://sumo.dlr.de/xsd/tripinfo_file.xsd">
    <tripinfo id="PRO_vl3" depart="0.00" departLane="5_0" departPos="5.10" departSpeed="0.00" departDelay="0.00" arrival="14.00" arrivalLane="2_0" arrivalPos="92.80" arrivalSpeed="10.00" duration="14.00" routeLength="194.90" waitingTime="2.00" waitingCount="1" stopTime="1.00" timeLoss="2.51" rerouteNo="0" devices="tripinfo_PRO_vl3" vType="car" speedFactor="1.08" vaporized="teleport"/>
    <tripinfo id="PRO_vl5" depart="1.00" departLane="6_0" departPos="5.10" departSpeed="0.00" departDelay="1.00" arrival="18.00" arrivalLane="1_0" arrivalPos="92.80" arrivalSpeed="10.00" duration="17.00" routeLength="194.90" waitingTime="4.00" waitingCount="2" stopTime="1.00" timeLoss="4.26" rerouteNo="0" devices="tripinfo_PRO_vl5" vType="car" speedFactor="0.83" vaporized="teleport"/>
    <tripinfo id="PRO_vl0" depart="0.00" departLane="4_0" departPos="5.10" departSpeed="0.00" departDelay="0.00" arrival="22.00" arrivalLane="1_0" arrivalPos="92.80" arrivalSpeed="10.00" duration="22.00" routeLength="189.53" waitingTime="1.00" waitingCount="1" stopTime="1.00" timeLoss="0.51" rerouteNo="0" devices="tripinfo_PRO_vl0" vType="car" speedFactor="1.06" vaporized=""/>
    <tripinfo id="PRO_vl2" depart="0.00" departLane="6_0" departPos="5.10" departSpeed="0.00" departDelay="0.00" arrival="23.00" arrivalLane="3_0" arrivalPos="92.80" arrivalSpeed="10.00" duration="23.00" routeLength="194.69" waitingTime="2.00" waitingCount="1" stopTime="1.00" timeLoss="2.27" rerouteNo="0" devices="tripinfo_PRO_vl2" vType="car" speedFactor="1.01" vaporized=""/>
    <tripinfo id="PRO_vl6" depart="0.00" departLane="7_0" departPos="5.10" departSpeed="0.00" departDelay="0.00" arrival="23.00" arrivalLane="2_0" arrivalPos="92.80" arrivalSpeed="10.00" duration="23.00" routeLength="189.53" waitingTime="2.00" waitingCount="1" stopTime="1.00" timeLoss="2.04" rerouteNo="0" devices="tripinfo_PRO_vl6" vType="car" speedFactor="1.05" vaporized=""/>
    <tripinfo id="PRO_vl10" depart="3.00" departLane="7_0" departPos="5.10" departSpeed="0.00" departDelay="3.00" arrival="22.00" arrivalLane="0_0" arrivalPos="92.80" arrivalSpeed="10.00" duration="19.00" routeLength="194.90" waitingTime="6.00" waitingCount="2" stopTime="1.00" timeLoss="5.98" rerouteNo="0" devices="tripinfo_PRO_vl10" vType="car" speedFactor="1.09" vaporized="teleport"/>
    <tripinfo id="PRO_vl1" depart="1.00" departLane="4_0" departPos="5.10" departSpeed="0.00" departDelay="1.00" arrival="26.00" arrivalLane="2_0" arrivalPos="92.80" arrivalSpeed="10.00" duration="25.00" routeLength="194.70" waitingTime="2.00" waitingCount="2" stopTime="1.00" timeLoss="3.18" rerouteNo="0" devices="tripinfo_PRO_vl1" vType="car" speedFactor="0.94" vaporized=""/>
    <tripinfo id="PRO_vl7" depart="1.00" departLane="7_0" departPos="5.10" departSpeed="0.00" departDelay="1.00" arrival="27.00" arrivalLane="1_0" arrivalPos="92.80" arrivalSpeed="10.00" duration="26.00" routeLength="194.70" waitingTime="4.00" waitingCount="2" stopTime="1.00" timeLoss="3.85" rerouteNo="0" devices="tripinfo_PRO_vl7" vType="car" speedFactor="0.89" vaporized=""/>
    <tripinfo id="PRO_vl9" depart="1.00" departLane="5_0" departPos="5.10" departSpeed="0.00" departDelay="1.00" arrival="27.00" arrivalLane="0_0" arrivalPos="92.80" arrivalSpeed="10.00" duration="26.00" routeLength="194.69" waitingTime="4.00" waitingCount="2" stopTime="1.00" timeLoss="3.80" rerouteNo="0" devices="tripinfo_PRO_vl9" vType="car" speedFactor="0.86" vaporized=""/>
    <tripinfo id="PRO_vl4" depart="3.00" departLane="4_0" departPos="5.10" departSpeed="0.00" departDelay="3.00" arrival="30.00" arrivalLane="2_0" arrivalPos="92.80" arrivalSpeed="10.00" duration="27.00" routeLength="194.70" waitingTime="3.00" waitingCount="3" stopTime="1.00" timeLoss="5.30" rerouteNo="0" devices="tripinfo_PRO_vl4" vType="car" speedFactor="1.03" vaporized=""/>
    <tripinfo id="PRO_vl8" depart="3.00" departLane="6_0" departPos="5.10" departSpeed="0.00" departDelay="3.00" arrival="31.00" arrivalLane="0_0" arrivalPos="92.80" arrivalSpeed="10.00" duration="28.00" routeLength="189.53" waitingTime="6.00" waitingCount="2" stopTime="1.00" timeLoss="5.98" rerouteNo="0" devices="tripinfo_PRO_vl8" vType="car" speedFactor="0.94" vaporized=""/>
    <tripinfo id="PRO_vl18" depart="3.00" departLane="5_0" departPos="5.10" departSpeed="0.00" departDelay="3.00" arrival="31.00" arrivalLane="2_0" arrivalPos="92.80" arrivalSpeed="10.00" duration="28.00" routeLength="194.90" waitingTime="6.00" waitingCount="2" stopTime="1.00" timeLoss="5.98" rerouteNo="0" devices="tripinfo_PRO_vl18" vType="car" speedFactor="0.94" vaporized=""/>
    <tripinfo id="PRO_vl11" depart="5.00" departLane="4_0" departPos="5.10" departSpeed="0.00" departDelay="5.00" arrival="34.00" arrivalLane="1_0" arrivalPos="92.80" arrivalSpeed="10.00" duration="29.00" routeLength="189.53" waitingTime="4.00" waitingCount="4" stopTime="1.00" timeLoss="7.51" rerouteNo="0" devices="tripinfo_PRO_vl11" vType="car" speedFactor="1.03" vaporized=""/>
    <tripinfo id="PRO_vl12" depart="5.00" departLane="7_0" departPos="5.10" departSpeed="0.00" departDelay="5.00" arrival="35.00" arrivalLane="0_0" arrivalPos="92.80" arrivalSpeed="10.00" duration="30.00" routeLength="194.90" waitingTime="8.00" waitingCount="3" stopTime="1.00" timeLoss="7.98" rerouteNo="0" devices="tripinfo_PRO_vl12" vType="car" speedFactor="1.05" vaporized=""/>
    <tripinfo id="PRO_vl17" depart="5.00" departLane="6_0" departPos="5.10" departSpeed="0.00" departDelay="5.00" arrival="35.00" arrivalLane="1_0" arrivalPos="92.80" arrivalSpeed="10.00" duration="30.00" routeLength="194.90" waitingTime="8.00" waitingCount="3" stopTime="1.00" timeLoss="7.98" rerouteNo="0" devices="tripinfo_PRO_vl17" vType="car" speedFactor="0.94" vaporized=""/>
    <tripinfo id="PRO_vl21" depart="5.00" departLane="5_0" departPos="5.10" departSpeed="0.00" departDelay="5.00" arrival="35.00" arrivalLane="3_0" arrivalPos="92.80" arrivalSpeed="10.00" duration="30.00" routeLength="189.53" waitingTime="8.00" waitingCount="3" stopTime="1.00" timeLoss="7.98" rerouteNo="0" devices="tripinfo_PRO_vl21" vType="car" speedFactor="1.01" vaporized=""/>
    <tripinfo id="PRO_vl16" depart="7.00" departLane="4_0" departPos="5.10" departSpeed="0.00" departDelay="7.00" arrival="38.00" arrivalLane="3_0" arrivalPos="92.80" arrivalSpeed="10.00" duration="31.00" routeLength="194.90" waitingTime="5.00" waitingCount="5" stopTime="1.00" timeLoss="9.51" rerouteNo="0" devices="tripinfo_PRO_vl16" vType="car" speedFactor="0.88" vaporized=""/>
    <tripinfo id="PRO_vl13" depart="7.00" departLane="7_0" departPos="5.10" departSpeed="0.00" departDelay="7.00" arrival="40.00" arrivalLane="2_0" arrivalPos="92.80" arrivalSpeed="10.00" duration="33.00" routeLength="189.53" waitingTime="11.00" waitingCount="4" stopTime="1.00" timeLoss="10.98" rerouteNo="0" devices="tripinfo_PRO_vl13" vType="car" speedFactor="1.12" vaporized=""/>
    <tripinfo id="PRO_vl19" depart="7.00" departLane="6_0" departPos="5.10" departSpeed="0.00" departDelay="7.00" arrival="40.00" arrivalLane="3_0" arrivalPos="92.80" arrivalSpeed="10.00" duration="33.00" routeLength="194.69" waitingTime="11.00" waitingCount="4" stopTime="1.00" timeLoss="10.90" rerouteNo="0" devices="tripinfo_PRO_vl19" vType="car" speedFactor="1.16" vaporized=""/>
    <tripinfo id="PRO_vl26" depart="12.00" departLane="4_0" departPos="5.10" departSpeed="0.00" departDelay="12.00" arrival="40.00" arrivalLane="1_0" arrivalPos="92.80" arrivalSpeed="10.00" duration="28.00" routeLength="189.53" waitingTime="9.00" waitingCount="8" stopTime="1.00" timeLoss="16.26" rerouteNo="0" devices="tripinfo_PRO_vl26" vType="car" speedFactor="0.92" vaporized="teleport"/>
    <tripinfo id="PRO_vl20" depart="8.00" departLane="4_0" departPos="5.10" departSpeed="0.00" departDelay="8.00" arrival="42.00" arrivalLane="1_0" arrivalPos="92.80" arrivalSpeed="10.00" duration="34.00" routeLength="189.53" waitingTime="6.00" waitingCount="6" stopTime="1.00" timeLoss="12.51" rerouteNo="0" devices="tripinfo_PRO_vl20" vType="car" speedFactor="1.02" vaporized=""/>
    <tripinfo id="PRO_vl14" depart="8.00" departLane="7_0" departPos="5.10" departSpeed="0.00" departDelay="8.00" arrival="44.00" arrivalLane="2_0" arrivalPos="92.80" arrivalSpeed="10.00" duration="36.00" routeLength="189.53" waitingTime="13.00" waitingCount="5" stopTime="1.00" timeLoss="13.98" rerouteNo="0" devices="tripinfo_PRO_vl14" vType="car" speedFactor="0.99" vaporized=""/>
    <tripinfo id="PRO_vl25" depart="8.00" departLane="6_0" departPos="5.10" departSpeed="0.00" departDelay="8.00" arrival="44.00" arrivalLane="3_0" arrivalPos="92.80" arrivalSpeed="10.00" duration="36.00" routeLength="194.69" waitingTime="13.00" waitingCount="5" stopTime="1.00" timeLoss="13.55" rerouteNo="0" devices="tripinfo_PRO_vl25" vType="car" speedFactor="0.87" vaporized=""/>
    <tripinfo id="PRO_vl23" depart="10.00" departLane="4_0" departPos="5.10" departSpeed="0.00" departDelay="10.00" arrival="46.00" arrivalLane="2_0" arrivalPos="92.80" arrivalSpeed="10.00" duration="36.00" routeLength="194.70" waitingTime="7.00" waitingCount="7" stopTime="1.00" timeLoss="15.11" rerouteNo="0" devices="tripinfo_PRO_vl23" vType="car" speedFactor="0.89" vaporized=""/>
    <tripinfo id="PRO_vl24" depart="7.00" departLane="5_0" departPos="5.10" departSpeed="0.00" departDelay="7.00" arrival="46.00" arrivalLane="0_0" arrivalPos="92.80" arrivalSpeed="10.00" duration="39.00" routeLength="194.69" waitingTime="17.00" waitingCount="4" stopTime="1.00" timeLoss="17.47" rerouteNo="0" devices="tripinfo_PRO_vl24" vType="car" speedFactor="0.83" vaporized=""/>
    <tripinfo id="PRO_vl30" depart="10.00" departLane="6_0" departPos="5.10" departSpeed="0.00" departDelay="10.00" arrival="48.00" arrivalLane="0_0" arrivalPos="92.80" arrivalSpeed="10.00" duration="38.00" routeLength="189.53" waitingTime="15.00" waitingCount="6" stopTime="1.00" timeLoss="15.98" rerouteNo="0" devices="tripinfo_PRO_vl30" vType="car" speedFactor="1.18" vaporized=""/>
    <tripinfo id="PRO_vl15" depart="10.00" departLane="7_0" departPos="5.10" departSpeed="0.00" departDelay="10.00" arrival="49.00" arrivalLane="1_0" arrivalPos="92.80" arrivalSpeed="10.00" duration="39.00" routeLength="194.70" waitingTime="16.00" waitingCount="6" stopTime="1.00" timeLoss="16.63" rerouteNo="0" devices="tripinfo_PRO_vl15" vType="car" speedFactor="0.93" vaporized=""/>
    <tripinfo id="PRO_vl27" depart="8.00" departLane="5_0" departPos="5.10" departSpeed="0.00" departDelay="8.00" arrival="50.00" arrivalLane="0_0" arrivalPos="92.80" arrivalSpeed="10.00" duration="42.00" routeLength="194.69" waitingTime="19.00" waitingCount="5" stopTime="1.00" timeLoss="19.66" rerouteNo="0" devices="tripinfo_PRO_vl27" vType="car" speedFactor="0.95" vaporized=""/>
    <tripinfo id="PRO_vl36" depart="12.00" departLane="6_0" departPos="5.10" departSpeed="0.00" departDelay="12.00" arrival="52.00" arrivalLane="1_0" arrivalPos="92.80" arrivalSpeed="10.00" duration="40.00" routeLength="194.90" waitingTime="17.00" waitingCount="7" stopTime="1.00" timeLoss="17.98" rerouteNo="0" devices="tripinfo_PRO_vl36" vType="car" speedFactor="0.97" vaporized=""/>
    <tripinfo id="PRO_vl22" depart="12.00" departLane="7_0" departPos="5.10" departSpeed="0.00" departDelay="12.00" arrival="53.00" arrivalLane="0_0" arrivalPos="92.80" arrivalSpeed="10.00" duration="41.00" routeLength="194.90" waitingTime="18.00" waitingCount="7" stopTime="1.00" timeLoss="18.98" rerouteNo="0" devices="tripinfo_PRO_vl22" vType="car" speedFactor="0.98" vaporized=""/>
    <tripinfo id="PRO_vl34" depart="10.00" departLane="5_0" departPos="5.10" departSpeed="0.00" departDelay="10.00" arrival="55.00" arrivalLane="0_0" arrivalPos="92.80" arrivalSpeed="10.00" duration="45.00" routeLength="194.69" waitingTime="31.00" waitingCount="6" stopTime="1.00" timeLoss="32.72" rerouteNo="0" devices="tripinfo_PRO_vl34" vType="car" speedFactor="0.99" vaporized="teleport"/>
    <tripinfo id="PRO_vl40" depart="14.00" departLane="6_0" departPos="5.10" departSpeed="0.00" departDelay="14.00" arrival="56.00" arrivalLane="1_0" arrivalPos="92.80" arrivalSpeed="10.00" duration="42.00" routeLength="194.90" waitingTime="19.00" waitingCount="8" stopTime="1.00" timeLoss="19.98" rerouteNo="0" devices="tripinfo_PRO_vl40" vType="car" speedFactor="1.03" vaporized=""/>
    <tripinfo id="PRO_vl35" depart="14.00" departLane="7_0" departPos="5.10" departSpeed="0.00" departDelay="14.00" arrival="57.00" arrivalLane="2_0" arrivalPos="92.80" arrivalSpeed="10.00" duration="43.00" routeLength="189.53" waitingTime="20.00" waitingCount="8" stopTime="1.00" timeLoss="20.98" rerouteNo="0" devices="tripinfo_PRO_vl35" vType="car" speedFactor="1.02" vaporized=""/>
    <tripinfo id="PRO_vl57" depart="15.00" departLane="6_0" departPos="5.10" departSpeed="0.00" departDelay="15.00" arrival="60.00" arrivalLane="3_0" arrivalPos="92.80" arrivalSpeed="10.00" duration="45.00" routeLength="194.69" waitingTime="21.00" waitingCount="9" stopTime="1.00" timeLoss="22.89" rerouteNo="0" devices="tripinfo_PRO_vl57" vType="car" speedFactor="1.14" vaporized=""/>
    <tripinfo id="PRO_vl38" depart="15.00" departLane="7_0" departPos="5.10" departSpeed="0.00" departDelay="15.00" arrival="61.00" arrivalLane="2_0" arrivalPos="92.80" arrivalSpeed="10.00" duration="46.00" routeLength="189.53" waitingTime="22.00" waitingCount="9" stopTime="1.00" timeLoss="23.98" rerouteNo="0" devices="tripinfo_PRO_vl38" vType="car" speedFactor="1.10" vaporized=""/>
    <tripinfo id="PRO_vl58" depart="17.00" departLane="6_0" departPos="5.10" departSpeed="0.00" departDelay="17.00" arrival="64.00" arrivalLane="0_0" arrivalPos="92.80" arrivalSpeed="10.00" duration="47.00" routeLength="189.53" waitingTime="23.00" waitingCount="10" stopTime="1.00" timeLoss="24.98" rerouteNo="0" devices="tripinfo_PRO_vl58" vType="car" speedFactor="1.02" vaporized=""/>
    <tripinfo id="PRO_vl41" depart="17.00" departLane="7_0" departPos="5.10" departSpeed="0.00" departDelay="17.00" arrival="65.00" arrivalLane="0_0" arrivalPos="92.80" arrivalSpeed="10.00" duration="48.00" routeLength="194.90" waitingTime="24.00" waitingCount="10" stopTime="1.00" timeLoss="25.98" rerouteNo="0" devices="tripinfo_PRO_vl41" vType="car" speedFactor="0.96" vaporized=""/>
    <tripinfo id="PRO_vl42" depart="12.00" departLane="5_0" departPos="5.10" departSpeed="0.00" departDelay="12.00" arrival="68.00" arrivalLane="3_0" arrivalPos="92.80" arrivalSpeed="10.00" duration="56.00" routeLength="189.53" waitingTime="33.00" waitingCount="7" stopTime="1.00" timeLoss="33.98" rerouteNo="0" devices="tripinfo_PRO_vl42" vType="car" speedFactor="1.09" vaporized=""/>
    <tripinfo id="PRO_vl61" depart="19.00" departLane="6_0" departPos="5.10" departSpeed="0.00" departDelay="19.00" arrival="68.00" arrivalLane="1_0" arrivalPos="92.80" arrivalSpeed="10.00" duration="49.00" routeLength="194.90" waitingTime="25.00" waitingCount="11" stopTime="1.00" timeLoss="26.98" rerouteNo="0" devices="tripinfo_PRO_vl61" vType="car" speedFactor="1.12" vaporized=""/>
    <tripinfo id="PRO_vl44" depart="19.00" departLane="7_0" departPos="5.10" departSpeed="0.00" departDelay="19.00" arrival="69.00" arrivalLane="2_0" arrivalPos="92.80" arrivalSpeed="10.00" duration="50.00" routeLength="189.53" waitingTime="26.00" waitingCount="11" stopTime="1.00" timeLoss="27.98" rerouteNo="0" devices="tripinfo_PRO_vl44" vType="car" speedFactor="1.04" vaporized=""/>
    <tripinfo id="PRO_vl43" depart="14.00" departLane="5_0" departPos="5.10" departSpeed="0.00" departDelay="14.00" arrival="72.00" arrivalLane="3_0" arrivalPos="92.80" arrivalSpeed="10.00" duration="58.00" routeLength="189.53" waitingTime="35.00" waitingCount="8" stopTime="1.00" timeLoss="35.98" rerouteNo="0" devices="tripinfo_PRO_vl43" vType="car" speedFactor="1.04" vaporized=""/>
    <tripinfo id="PRO_vl64" depart="24.00" departLane="6_0" departPos="5.10" departSpeed="0.00" departDelay="24.00" arrival="72.00" arrivalLane="0_0" arrivalPos="92.80" arrivalSpeed="10.00" duration="48.00" routeLength="189.53" waitingTime="24.00" waitingCount="11" stopTime="1.00" timeLoss="25.98" rerouteNo="0" devices="tripinfo_PRO_vl64" vType="car" speedFactor="0.94" vaporized=""/>
    <tripinfo id="PRO_vl47" depart="24.00" departLane="7_0" departPos="5.10" departSpeed="0.00" departDelay="24.00" arrival="73.00" arrivalLane="2_0" arrivalPos="92.80" arrivalSpeed="10.00" duration="49.00" routeLength="189.53" waitingTime="25.00" waitingCount="11" stopTime="1.00" timeLoss="26.98" rerouteNo="0" devices="tripinfo_PRO_vl47" vType="car" speedFactor="0.90" vaporized=""/>
    <tripinfo id="PRO_vl46" depart="15.00" departLane="5_0" departPos="5.10" departSpeed="0.00" departDelay="15.00" arrival="76.00" arrivalLane="2_0" arrivalPos="92.80" arrivalSpeed="10.00" duration="61.00" routeLength="194.90" waitingTime="37.00" waitingCount="9" stopTime="1.00" timeLoss="38.98" rerouteNo="0" devices="tripinfo_PRO_vl46" vType="car" speedFactor="1.00" vaporized=""/>
    <tripinfo id="PRO_vl76" depart="28.00" departLane="6_0" departPos="5.10" departSpeed="0.00" departDelay="28.00" arrival="76.00" arrivalLane="0_0" arrivalPos="92.80" arrivalSpeed="10.00" duration="48.00" routeLength="189.53" waitingTime="25.00" waitingCount="11" stopTime="1.00" timeLoss="25.98" rerouteNo="0" devices="tripinfo_PRO_vl76" vType="car" speedFactor="1.03" vaporized=""/>
    <tripinfo id="PRO_vl50" depart="28.00" departLane="7_0" departPos="5.10" departSpeed="0.00" departDelay="28.00" arrival="77.00" arrivalLane="1_0" arrivalPos="92.80" arrivalSpeed="10.00" duration="49.00" routeLength="194.70" waitingTime="26.00" waitingCount="11" stopTime="1.00" timeLoss="26.52" rerouteNo="0" devices="tripinfo_PRO_vl50" vType="car" speedFactor="0.85" vaporized=""/>
    <tripinfo id="PRO_vl48" depart="17.00" departLane="5_0" departPos="5.10" departSpeed="0.00" departDelay="17.00" arrival="80.00" arrivalLane="0_0" arrivalPos="92.80" arrivalSpeed="10.00" duration="63.00" routeLength="194.69" waitingTime="39.00" waitingCount="10" stopTime="1.00" timeLoss="40.56" rerouteNo="0" devices="tripinfo_PRO_vl48" vType="car" speedFactor="0.88" vaporized=""/>
    <tripinfo id="PRO_vl77" depart="32.00" departLane="6_0" departPos="5.10" departSpeed="0.00" departDelay="32.00" arrival="80.00" arrivalLane="3_0" arrivalPos="92.80" arrivalSpeed="10.00" duration="48.00" routeLength="194.69" waitingTime="25.00" waitingCount="11" stopTime="1.00" timeLoss="25.71" rerouteNo="0" devices="tripinfo_PRO_vl77" vType="car" speedFactor="0.98" vaporized=""/>
    <tripinfo id="PRO_vl51" depart="32.00" departLane="7_0" departPos="5.10" departSpeed="0.00" departDelay="32.00" arrival="81.00" arrivalLane="1_0" arrivalPos="92.80" arrivalSpeed="10.00" duration="49.00" routeLength="194.70" waitingTime="26.00" waitingCount="11" stopTime="1.00" timeLoss="26.91" rerouteNo="0" devices="tripinfo_PRO_vl51" vType="car" speedFactor="1.17" vaporized=""/>
    <tripinfo id="PRO_vl49" depart="19.00" departLane="5_0" departPos="5.10" departSpeed="0.00" departDelay="19.00" arrival="84.00" arrivalLane="3_0" arrivalPos="92.80" arrivalSpeed="10.00" duration="65.00" routeLength="189.53" waitingTime="41.00" waitingCount="11" stopTime="1.00" timeLoss="42.98" rerouteNo="0" devices="tripinfo_PRO_vl49" vType="car" speedFactor="0.85" vaporized=""/>
    <tripinfo id="PRO_vl59" depart="28.00" departLane="5_0" departPos="5.10" departSpeed="0.00" departDelay="28.00" arrival="83.00" arrivalLane="0_0" arrivalPos="92.80" arrivalSpeed="10.00" duration="55.00" routeLength="194.69" waitingTime="41.00" waitingCount="11" stopTime="1.00" timeLoss="41.69" rerouteNo="0" devices="tripinfo_PRO_vl59" vType="car" speedFactor="0.97" vaporized="teleport"/>
    <tripinfo id="PRO_vl81" depart="37.00" departLane="6_0" departPos="5.10" departSpeed="0.00" departDelay="37.00" arrival="84.00" arrivalLane="0_0" arrivalPos="92.80" arrivalSpeed="10.00" duration="47.00" routeLength="189.53" waitingTime="24.00" waitingCount="11" stopTime="1.00" timeLoss="24.98" rerouteNo="0" devices="tripinfo_PRO_vl81" vType="car" speedFactor="1.00" vaporized=""/>
    <tripinfo id="PRO_vl52" depart="37.00" departLane="7_0" departPos="5.10" departSpeed="0.00" departDelay="37.00" arrival="85.00" arrivalLane="2_0" arrivalPos="92.80" arrivalSpeed="10.00" duration="48.00" routeLength="189.53" waitingTime="25.00" waitingCount="11" stopTime="1.00" timeLoss="25.98" rerouteNo="0" devices="tripinfo_PRO_vl52" vType="car" speedFactor="1.02" vaporized=""/>
    <tripinfo id="PRO_vl53" depart="24.00" departLane="5_0" departPos="5.10" departSpeed="0.00" departDelay="24.00" arrival="88.00" arrivalLane="2_0" arrivalPos="92.80" arrivalSpeed="10.00" duration="64.00" routeLength="194.90" waitingTime="40.00" waitingCount="11" stopTime="1.00" timeLoss="41.98" rerouteNo="0" devices="tripinfo_PRO_vl53" vType="car" speedFactor="1.10" vaporized=""/>
    <tripinfo id="PRO_vl82" depart="41.00" departLane="6_0" departPos="5.10" departSpeed="0.00" departDelay="41.00" arrival="88.00" arrivalLane="1_0" arrivalPos="92.80" arrivalSpeed="10.00" duration="47.00" routeLength="194.90" waitingTime="24.00" waitingCount="11" stopTime="1.00" timeLoss="24.98" rerouteNo="0" devices="tripinfo_PRO_vl82" vType="car" speedFactor="1.02" vaporized=""/>
    <tripinfo id="PRO_vl55" depart="41.00" departLane="7_0" departPos="5.10" departSpeed="0.00" departDelay="41.00" arrival="89.00" arrivalLane="1_0" arrivalPos="92.80" arrivalSpeed="10.00" duration="48.00" routeLength="194.70" waitingTime="25.00" waitingCount="11" stopTime="1.00" timeLoss="25.73" rerouteNo="0" devices="tripinfo_PRO_vl55" vType="car" speedFactor="1.00" vaporized=""/>
    <tripinfo id="PRO_vl67" depart="36.00" departLane="5_0" departPos="5.10" departSpeed="0.00" departDelay="36.00" arrival="91.00" arrivalLane="0_0" arrivalPos="92.80" arrivalSpeed="10.00" duration="55.00" routeLength="194.69" waitingTime="41.00" waitingCount="11" stopTime="1.00" timeLoss="41.61" rerouteNo="0" devices="tripinfo_PRO_vl67" vType="car" speedFactor="0.91" vaporized="teleport"/>
    <tripinfo id="PRO_vl87" depart="45.00" departLane="6_0" departPos="5.10" departSpeed="0.00" departDelay="45.00" arrival="92.00" arrivalLane="0_0" arrivalPos="92.80" arrivalSpeed="10.00" duration="47.00" routeLength="189.53" waitingTime="24.00" waitingCount="11" stopTime="1.00" timeLoss="24.98" rerouteNo="0" devices="tripinfo_PRO_vl87" vType="car" speedFactor="1.04" vaporized=""/>
    <tripinfo id="PRO_vl56" depart="46.00" departLane="7_0" departPos="5.10" departSpeed="0.00" departDelay="46.00" arrival="93.00" arrivalLane="1_0" arrivalPos="92.80" arrivalSpeed="10.00" duration="47.00" routeLength="194.70" waitingTime="24.00" waitingCount="11" stopTime="1.00" timeLoss="24.59" rerouteNo="0" devices="tripinfo_PRO_vl56" vType="car" speedFactor="0.90" vaporized=""/>
    <tripinfo id="PRO_vl65" depart="32.00" departLane="5_0" departPos="5.10" departSpeed="0.00" departDelay="32.00" arrival="96.00" arrivalLane="3_0" arrivalPos="92.80" arrivalSpeed="10.00" duration="64.00" routeLength="189.53" waitingTime="41.00" waitingCount="11" stopTime="1.00" timeLoss="41.98" rerouteNo="0" devices="tripinfo_PRO_vl65" vType="car" speedFactor="0.88" vaporized=""/>
    <tripinfo id="PRO_vl94" depart="49.00" departLane="6_0" departPos="5.10" departSpeed="0.00" departDelay="49.00" arrival="96.00" arrivalLane="1_0" arrivalPos="92.80" arrivalSpeed="10.00" duration="47.00" routeLength="194.90" waitingTime="24.00" waitingCount="11" stopTime="1.00" timeLoss="24.98" rerouteNo="0" devices="tripinfo_PRO_vl94" vType="car" speedFactor="1.09" vaporized=""/>
    <tripinfo id="PRO_vl97" depart="57.00" departLane="6_0" departPos="5.10" departSpeed="0.00" departDelay="57.00" arrival="95.00" arrivalLane="3_0" arrivalPos="92.80" arrivalSpeed="10.00" duration="38.00" routeLength="194.69" waitingTime="24.00" waitingCount="11" stopTime="1.00" timeLoss="24.60" rerouteNo="0" devices="tripinfo_PRO_vl97" vType="car" speedFactor="0.91" vaporized="teleport"/>
    <tripinfo id="PRO_vl68" depart="50.00" departLane="7_0" departPos="5.10" departSpeed="0.00" departDelay="50.00" arrival="97.00" arrivalLane="0_0" arrivalPos="92.80" arrivalSpeed="10.00" duration="47.00" routeLength="194.90" waitingTime="24.00" waitingCount="11" stopTime="1.00" timeLoss="24.98" rerouteNo="0" devices="tripinfo_PRO_vl68" vType="car" speedFactor="1.04" vaporized=""/>
    <tripinfo id="PRO_vl28" depart="14.00" departLane="4_0" departPos="5.10" departSpeed="0.00" departDelay="14.00" arrival="99.00" arrivalLane="2_0" arrivalPos="92.80" arrivalSpeed="10.00" duration="85.00" routeLength="194.70" waitingTime="56.00" waitingCount="8" stopTime="1.00" timeLoss="63.88" rerouteNo="0" devices="tripinfo_PRO_vl28" vType="car" speedFactor="1.13" vaporized=""/>
    <tripinfo id="PRO_vl95" depart="53.00" departLane="6_0" departPos="5.10" departSpeed="0.00" departDelay="53.00" arrival="100.00" arrivalLane="0_0" arrivalPos="92.80" arrivalSpeed="10.00" duration="47.00" routeLength="189.53" waitingTime="24.00" waitingCount="11" stopTime="1.00" timeLoss="24.98" rerouteNo="0" devices="tripinfo_PRO_vl95" vType="car" speedFactor="1.06" vaporized=""/>
    <tripinfo id="PRO_vl73" depart="54.00" departLane="7_0" departPos="5.10" departSpeed="0.00" departDelay="54.00" arrival="101.00" arrivalLane="0_0" arrivalPos="92.80" arrivalSpeed="10.00" duration="47.00" routeLength="194.90" waitingTime="24.00" waitingCount="11" stopTime="1.00" timeLoss="24.98" rerouteNo="0" devices="tripinfo_PRO_vl73" vType="car" speedFactor="1.06" vaporized=""/>
    <tripinfo id="PRO_vl29" depart="15.00" departLane="4_0" departPos="5.10" departSpeed="0.00" departDelay="15.00" arrival="103.00" arrivalLane="1_0" arrivalPos="92.80" arrivalSpeed="10.00" duration="88.00" routeLength="189.53" waitingTime="58.00" waitingCount="9" stopTime="1.00" timeLoss="65.98" rerouteNo="0" devices="tripinfo_PRO_vl29" vType="car" speedFactor="0.93" vaporized=""/>
    <tripinfo id="PRO_vl69" depart="47.00" departLane="5_0" departPos="5.10" departSpeed="0.00" departDelay="47.00" arrival="104.00" arrivalLane="3_0" arrivalPos="92.80" arrivalSpeed="10.00" duration="57.00" routeLength="189.53" waitingTime="34.00" waitingCount="11" stopTime="1.00" timeLoss="34.98" rerouteNo="0" devices="tripinfo_PRO_vl69" vType="car" speedFactor="1.02" vaporized=""/>
    <tripinfo id="PRO_vl79" depart="58.00" departLane="7_0" departPos="5.10" departSpeed="0.00" departDelay="58.00" arrival="105.00" arrivalLane="1_0" arrivalPos="92.80" arrivalSpeed="10.00" duration="47.00" routeLength="194.70" waitingTime="24.00" waitingCount="11" stopTime="1.00" timeLoss="24.83" rerouteNo="0" devices="tripinfo_PRO_vl79" vType="car" speedFactor="1.09" vaporized=""/>
    <tripinfo id="PRO_vl31" depart="17.00" departLane="4_0" departPos="5.10" departSpeed="0.00" departDelay="17.00" arrival="107.00" arrivalLane="1_0" arrivalPos="92.80" arrivalSpeed="10.00" duration="90.00" routeLength="189.53" waitingTime="60.00" waitingCount="10" stopTime="1.00" timeLoss="67.98" rerouteNo="0" devices="tripinfo_PRO_vl31" vType="car" speedFactor="1.15" vaporized=""/>
    <tripinfo id="PRO_vl70" depart="51.00" departLane="5_0" departPos="5.10" departSpeed="0.00" departDelay="51.00" arrival="108.00" arrivalLane="3_0" arrivalPos="92.80" arrivalSpeed="10.00" duration="57.00" routeLength="189.53" waitingTime="34.00" waitingCount="11" stopTime="1.00" timeLoss="34.98" rerouteNo="0" devices="tripinfo_PRO_vl70" vType="car" speedFactor="1.02" vaporized=""/>
    <tripinfo id="PRO_vl103" depart="61.00" departLane="6_0" departPos="5.10" departSpeed="0.00" departDelay="61.00" arrival="108.00" arrivalLane="0_0" arrivalPos="92.80" arrivalSpeed="10.00" duration="47.00" routeLength="189.53" waitingTime="24.00" waitingCount="11" stopTime="1.00" timeLoss="24.98" rerouteNo="0" devices="tripinfo_PRO_vl103" vType="car" speedFactor="0.95" vaporized=""/>
    <tripinfo id="PRO_vl83" depart="62.00" departLane="7_0" departPos="5.10" departSpeed="0.00" departDelay="62.00" arrival="109.00" arrivalLane="2_0" arrivalPos="92.80" arrivalSpeed="10.00" duration="47.00" routeLength="189.53" waitingTime="24.00" waitingCount="11" stopTime="1.00" timeLoss="24.98" rerouteNo="0" devices="tripinfo_PRO_vl83" vType="car" speedFactor="0.97" vaporized=""/>
    <tripinfo id="PRO_vl32" depart="19.00" departLane="4_0" departPos="5.10" departSpeed="0.00" departDelay="19.00" arrival="111.00" arrivalLane="1_0" arrivalPos="92.80" arrivalSpeed="10.00" duration="92.00" routeLength="189.53" waitingTime="62.00" waitingCount="11" stopTime="1.00" timeLoss="69.98" rerouteNo="0" devices="tripinfo_PRO_vl32" vType="car" speedFactor="1.01" vaporized=""/>
    <tripinfo id="PRO_vl104" depart="65.00" departLane="6_0" departPos="5.10" departSpeed="0.00" departDelay="65.00" arrival="112.00" arrivalLane="3_0" arrivalPos="92.80" arrivalSpeed="10.00" duration="47.00" routeLength="194.69" waitingTime="24.00" waitingCount="11" stopTime="1.00" timeLoss="24.58" rerouteNo="0" devices="tripinfo_PRO_vl104" vType="car" speedFactor="0.89" vaporized=""/>